<event>
 4    1  0.8963905E-004  0.8652520E+02  0.7546771E-02  0.1189416E+00
         22   -1    0    0    0    0  0.00000000000E+00  0.00000000000E+00  0.18472453944E+02  0.18472453944E+02  0.00000000000E+00 0.  1.
         22   -1    0    0    0    0 -0.00000000000E+00 -0.00000000000E+00 -0.80600828034E+03  0.80600828034E+03  0.00000000000E+00 0. -1.
         24    1    1    2    0    0 -0.19389250522E+02 -0.25366336690E+02 -0.10309604191E+03  0.13459347638E+03  0.80419002446E+02 0.  1.
        -24    1    1    2    0    0  0.19389250522E+02  0.25366336690E+02 -0.68443978448E+03  0.68988725790E+03  0.80419002446E+02 0. -1.
<mgrwt>
<rscale>  0 0.86525199E+02</rscale>
<asrwt>0</asrwt>
<pdfrwt beam="1">  1       22 0.36945280E+00 0.86525199E+02</pdfrwt>
<pdfrwt beam="2">0</pdfrwt>
<totfact> 0.37227866E-02</totfact>
</mgrwt>
</event>
<event>
 4    1  0.8963905E-004  0.9048669E+02  0.7546771E-02  0.1181375E+00
         22   -1    0    0    0    0  0.00000000000E+00  0.00000000000E+00  0.15092524322E+02  0.15092524322E+02  0.00000000000E+00 0. -1.
         22   -1    0    0    0    0 -0.00000000000E+00 -0.00000000000E+00 -0.76429584649E+03  0.76429584649E+03  0.00000000000E+00 0.  1.
         24    1    1    2    0    0  0.34930504212E+02 -0.22371512671E+02 -0.16467848159E+03  0.18790115209E+03  0.80419002446E+02 0. -1.
        -24    1    1    2    0    0 -0.34930504212E+02  0.22371512671E+02 -0.58452484058E+03  0.59148721872E+03  0.80419002446E+02 0.  1.
<mgrwt>
<rscale>  0 0.90486688E+02</rscale>
<asrwt>0</asrwt>
<pdfrwt beam="1">  1       22 0.30185986E+00 0.90486688E+02</pdfrwt>
<pdfrwt beam="2">0</pdfrwt>
<totfact> 0.55030795E-02</totfact>
</mgrwt>
</event>
<event>
 4    1  0.8963905E-004  0.8648791E+02  0.7546771E-02  0.1189494E+00
         22   -1    0    0    0    0  0.00000000000E+00  0.00000000000E+00  0.87030514898E+01  0.87030514898E+01  0.00000000000E+00 0.  1.
         22   -1    0    0    0    0 -0.00000000000E+00 -0.00000000000E+00 -0.11002734691E+04  0.11002734691E+04  0.00000000000E+00 0.  1.
         24    1    1    2    0    0  0.25973243911E+02  0.18393822966E+02 -0.28639221970E+03  0.29916661174E+03  0.80419002446E+02 0.  1.
        -24    1    1    2    0    0 -0.25973243911E+02 -0.18393822966E+02 -0.80517819794E+03  0.80980990888E+03  0.80419002446E+02 0.  1.
<mgrwt>
<rscale>  0 0.86487907E+02</rscale>
<asrwt>0</asrwt>
<pdfrwt beam="1">  1       22 0.17405064E+00 0.86487907E+02</pdfrwt>
<pdfrwt beam="2">0</pdfrwt>
<totfact> 0.53326133E-02</totfact>
</mgrwt>
</event>
<event>
 4    1  0.8963905E-004  0.1170329E+03  0.7546771E-02  0.1137241E+00
         22   -1    0    0    0    0  0.00000000000E+00  0.00000000000E+00  0.16406107132E+02  0.16406107132E+02  0.00000000000E+00 0.  1.
         22   -1    0    0    0    0 -0.00000000000E+00 -0.00000000000E+00 -0.11332068264E+04  0.11332068264E+04  0.00000000000E+00 0.  1.
         24    1    1    2    0    0 -0.35729756950E+02  0.77154864704E+02 -0.85333929739E+03  0.86132726713E+03  0.80419002446E+02 0.  1.
        -24    1    1    2    0    0  0.35729756950E+02 -0.77154864704E+02 -0.26346142188E+03  0.28828566640E+03  0.80419002446E+02 0.  1.
<mgrwt>
<rscale>  0 0.11703292E+03</rscale>
<asrwt>0</asrwt>
<pdfrwt beam="1">  1       22 0.32813504E+00 0.11703292E+03</pdfrwt>
<pdfrwt beam="2">0</pdfrwt>
<totfact> 0.22178476E-02</totfact>
</mgrwt>
</event>
<event>
 4    1  0.8963905E-004  0.8311220E+02  0.7546771E-02  0.1196741E+00
         22   -1    0    0    0    0  0.00000000000E+00  0.00000000000E+00  0.25937028891E+02  0.25937028891E+02  0.00000000000E+00 0. -1.
         22   -1    0    0    0    0 -0.00000000000E+00 -0.00000000000E+00 -0.27320579477E+03  0.27320579477E+03  0.00000000000E+00 0. -1.
         24    1    1    2    0    0 -0.18078206322E+02  0.10658380412E+02 -0.99894837749E+02  0.12994851742E+03  0.80419002446E+02 0. -1.
        -24    1    1    2    0    0  0.18078206322E+02 -0.10658380412E+02 -0.14737392813E+03  0.16919430624E+03  0.80419002446E+02 0. -1.
<mgrwt>
<rscale>  0 0.83112205E+02</rscale>
<asrwt>0</asrwt>
<pdfrwt beam="1">  1       22 0.51874048E+00 0.83112205E+02</pdfrwt>
<pdfrwt beam="2">0</pdfrwt>
<totfact> 0.14591905E-01</totfact>
</mgrwt>
</event>
<event>
 4    1  0.8963905E-004  0.1799751E+03  0.7546771E-02  0.1070483E+00
         22   -1    0    0    0    0  0.00000000000E+00  0.00000000000E+00  0.46634805150E+02  0.46634805150E+02  0.00000000000E+00 0. -1.
         22   -1    0    0    0    0 -0.00000000000E+00 -0.00000000000E+00 -0.69590041944E+03  0.69590041944E+03  0.00000000000E+00 0. -1.
         24    1    1    2    0    0  0.75526991488E+02 -0.14219529403E+03 -0.30838736403E+03  0.35706275406E+03  0.80419002446E+02 0. -1.
        -24    1    1    2    0    0 -0.75526991488E+02  0.14219529403E+03 -0.34087825026E+03  0.38547247054E+03  0.80419002446E+02 0. -1.
<mgrwt>
<rscale>  0 0.17997512E+03</rscale>
<asrwt>0</asrwt>
<pdfrwt beam="1">  1       22 0.93268251E+00 0.17997512E+03</pdfrwt>
<pdfrwt beam="2">0</pdfrwt>
<totfact> 0.13020349E-02</totfact>
</mgrwt>
</event>
<event>
 4    1  0.8963905E-004  0.9503227E+02  0.7546771E-02  0.1172699E+00
         22   -1    0    0    0    0  0.00000000000E+00  0.00000000000E+00  0.18782850220E+02  0.18782850220E+02  0.00000000000E+00 0.  1.
         22   -1    0    0    0    0 -0.00000000000E+00 -0.00000000000E+00 -0.17642234630E+04  0.17642234630E+04  0.00000000000E+00 0. -1.
         24    1    1    2    0    0  0.10400649575E+02  0.49555452303E+02 -0.11234495238E+03  0.14714795494E+03  0.80419002446E+02 0.  1.
        -24    1    1    2    0    0 -0.10400649575E+02 -0.49555452303E+02 -0.16330956604E+04  0.16358583583E+04  0.80419002446E+02 0. -1.
<mgrwt>
<rscale>  0 0.95032270E+02</rscale>
<asrwt>0</asrwt>
<pdfrwt beam="1">  1       22 0.37565857E+00 0.95032270E+02</pdfrwt>
<pdfrwt beam="2">0</pdfrwt>
<totfact> 0.62167293E-03</totfact>
</mgrwt>
</event>
<event>
 4    1  0.8963905E-004  0.1245736E+03  0.7546771E-02  0.1127032E+00
         22   -1    0    0    0    0  0.00000000000E+00  0.00000000000E+00  0.29666085822E+02  0.29666085822E+02  0.00000000000E+00 0.  1.
         22   -1    0    0    0    0 -0.00000000000E+00 -0.00000000000E+00 -0.84881394434E+03  0.84881394434E+03  0.00000000000E+00 0.  1.
         24    1    1    2    0    0 -0.92086125661E+02 -0.23906459170E+02 -0.13748680996E+03  0.18552954535E+03  0.80419002446E+02 0.  1.
        -24    1    1    2    0    0  0.92086125661E+02  0.23906459170E+02 -0.68166104856E+03  0.69295048481E+03  0.80419002446E+02 0.  1.
<mgrwt>
<rscale>  0 0.12457363E+03</rscale>
<asrwt>0</asrwt>
<pdfrwt beam="1">  1       22 0.59330036E+00 0.12457363E+03</pdfrwt>
<pdfrwt beam="2">0</pdfrwt>
<totfact> 0.17119009E-02</totfact>
</mgrwt>
</event>
<event>
 4    1  0.8963905E-004  0.9796110E+02  0.7546771E-02  0.1167390E+00
         22   -1    0    0    0    0  0.00000000000E+00  0.00000000000E+00  0.33635497517E+02  0.33635497517E+02  0.00000000000E+00 0. -1.
         22   -1    0    0    0    0 -0.00000000000E+00 -0.00000000000E+00 -0.41779415245E+03  0.41779415245E+03  0.00000000000E+00 0. -1.
         24    1    1    2    0    0  0.29695120151E+01  0.55860025793E+02 -0.31918619823E+03  0.33388052590E+03  0.80419002446E+02 0. -1.
        -24    1    1    2    0    0 -0.29695120151E+01 -0.55860025793E+02 -0.64972456699E+02  0.11754912406E+03  0.80419002446E+02 0. -1.
<mgrwt>
<rscale>  0 0.97961097E+02</rscale>
<asrwt>0</asrwt>
<pdfrwt beam="1">  1       22 0.67271656E+00 0.97961097E+02</pdfrwt>
<pdfrwt beam="2">0</pdfrwt>
<totfact> 0.50404179E-02</totfact>
</mgrwt>
</event>
<event>
 4    1  0.8963905E-004  0.1248382E+03  0.7546771E-02  0.1126689E+00
         22   -1    0    0    0    0  0.00000000000E+00  0.00000000000E+00  0.47917756426E+02  0.47917756426E+02  0.00000000000E+00 0.  1.
         22   -1    0    0    0    0 -0.00000000000E+00 -0.00000000000E+00 -0.35578200816E+03  0.35578200816E+03  0.00000000000E+00 0.  1.
         24    1    1    2    0    0 -0.90482106689E+02 -0.30501601350E+02 -0.21307662497E+03  0.24695388918E+03  0.80419002446E+02 0.  1.
        -24    1    1    2    0    0  0.90482106689E+02  0.30501601350E+02 -0.94787626758E+02  0.15674587541E+03  0.80419002446E+02 0.  1.
<mgrwt>
<rscale>  0 0.12483820E+03</rscale>
<asrwt>0</asrwt>
<pdfrwt beam="1">  1       22 0.95835730E+00 0.12483820E+03</pdfrwt>
<pdfrwt beam="2">0</pdfrwt>
<totfact> 0.38516137E-02</totfact>
</mgrwt>
</event>
<event>
 4    1  0.8963905E-004  0.1028437E+03  0.7546771E-02  0.1158985E+00
         22   -1    0    0    0    0  0.00000000000E+00  0.00000000000E+00  0.89497653384E+01  0.89497653384E+01  0.00000000000E+00 0.  1.
         22   -1    0    0    0    0 -0.00000000000E+00 -0.00000000000E+00 -0.15890469541E+04  0.15890469541E+04  0.00000000000E+00 0. -1.
         24    1    1    2    0    0 -0.37729078323E+02 -0.51827888370E+02 -0.38555965996E+03  0.39904019936E+03  0.80419002446E+02 0.  1.
        -24    1    1    2    0    0  0.37729078323E+02  0.51827888370E+02 -0.11945375288E+04  0.11989565200E+04  0.80419002446E+02 0. -1.
<mgrwt>
<rscale>  0 0.10284371E+03</rscale>
<asrwt>0</asrwt>
<pdfrwt beam="1">  1       22 0.17901669E+00 0.10284371E+03</pdfrwt>
<pdfrwt beam="2">0</pdfrwt>
<totfact> 0.22114935E-02</totfact>
</mgrwt>
</event>
<event>
 4    1  0.8963905E-004  0.9875671E+02  0.7546771E-02  0.1165984E+00
         22   -1    0    0    0    0  0.00000000000E+00  0.00000000000E+00  0.19012368008E+02  0.19012368008E+02  0.00000000000E+00 0.  1.
         22   -1    0    0    0    0 -0.00000000000E+00 -0.00000000000E+00 -0.52377509774E+03  0.52377509774E+03  0.00000000000E+00 0. -1.
         24    1    1    2    0    0 -0.40921438819E+02 -0.40138610350E+02 -0.21341216505E+03  0.23515450313E+03  0.80419002446E+02 0.  0.
        -24    1    1    2    0    0  0.40921438819E+02  0.40138610350E+02 -0.29135056468E+03  0.30763296262E+03  0.80419002446E+02 0. -1.
<mgrwt>
<rscale>  0 0.98756712E+02</rscale>
<asrwt>0</asrwt>
<pdfrwt beam="1">  1       22 0.38024765E+00 0.98756712E+02</pdfrwt>
<pdfrwt beam="2">0</pdfrwt>
<totfact> 0.80509351E-02</totfact>
</mgrwt>
</event>
<event>
 4    1  0.8963905E-004  0.1033094E+03  0.7546771E-02  0.1158211E+00
         22   -1    0    0    0    0  0.00000000000E+00  0.00000000000E+00  0.53953981924E+01  0.53953981924E+01  0.00000000000E+00 0.  1.
         22   -1    0    0    0    0 -0.00000000000E+00 -0.00000000000E+00 -0.20283286822E+04  0.20283286822E+04  0.00000000000E+00 0.  1.
         24    1    1    2    0    0 -0.58354797450E+02 -0.28290332814E+02 -0.11714243438E+04  0.11759710177E+04  0.80419002446E+02 0.  1.
        -24    1    1    2    0    0  0.58354797450E+02  0.28290332814E+02 -0.85150894024E+03  0.85775306270E+03  0.80419002446E+02 0.  1.
<mgrwt>
<rscale>  0 0.10330944E+03</rscale>
<asrwt>0</asrwt>
<pdfrwt beam="1">  1       22 0.10790502E+00 0.10330944E+03</pdfrwt>
<pdfrwt beam="2">0</pdfrwt>
<totfact> 0.21232945E-02</totfact>
</mgrwt>
</event>
<event>
 4    1  0.8963905E-004  0.9463190E+02  0.7546771E-02  0.1173441E+00
         22   -1    0    0    0    0  0.00000000000E+00  0.00000000000E+00  0.37492142196E+02  0.37492142196E+02  0.00000000000E+00 0. -1.
         22   -1    0    0    0    0 -0.00000000000E+00 -0.00000000000E+00 -0.13413188792E+04  0.13413188792E+04  0.00000000000E+00 0. -1.
         24    1    1    2    0    0  0.33948735607E+02  0.36544008774E+02 -0.12769289665E+04  0.12804307020E+04  0.80419002446E+02 0. -1.
        -24    1    1    2    0    0 -0.33948735607E+02 -0.36544008774E+02 -0.26897770490E+02  0.98380319365E+02  0.80419002446E+02 0. -1.
<mgrwt>
<rscale>  0 0.94631904E+02</rscale>
<asrwt>0</asrwt>
<pdfrwt beam="1">  1       22 0.74985020E+00 0.94631904E+02</pdfrwt>
<pdfrwt beam="2">0</pdfrwt>
<totfact> 0.43517999E-03</totfact>
</mgrwt>
</event>
<event>
 4    1  0.8963905E-004  0.9534580E+02  0.7546771E-02  0.1172120E+00
         22   -1    0    0    0    0  0.00000000000E+00  0.00000000000E+00  0.17976356414E+02  0.17976356414E+02  0.00000000000E+00 0. -1.
         22   -1    0    0    0    0 -0.00000000000E+00 -0.00000000000E+00 -0.74658852128E+03  0.74658852128E+03  0.00000000000E+00 0. -1.
         24    1    1    2    0    0 -0.21921224500E+02 -0.46293260150E+02 -0.14716460239E+03  0.17535176695E+03  0.80419002446E+02 0. -1.
        -24    1    1    2    0    0  0.21921224500E+02  0.46293260150E+02 -0.58144756247E+03  0.58921311075E+03  0.80419002446E+02 0. -1.
<mgrwt>
<rscale>  0 0.95345802E+02</rscale>
<asrwt>0</asrwt>
<pdfrwt beam="1">  1       22 0.35951416E+00 0.95345802E+02</pdfrwt>
<pdfrwt beam="2">0</pdfrwt>
<totfact> 0.45291491E-02</totfact>
</mgrwt>
</event>
<event>
 4    1  0.8963905E-004  0.8974538E+02  0.7546771E-02  0.1182845E+00
         22   -1    0    0    0    0  0.00000000000E+00  0.00000000000E+00  0.46876630250E+01  0.46876630250E+01  0.00000000000E+00 0. -1.
         22   -1    0    0    0    0 -0.00000000000E+00 -0.00000000000E+00 -0.26220711791E+04  0.26220711791E+04  0.00000000000E+00 0.  1.
         24    1    1    2    0    0  0.10071208946E+02 -0.38543324358E+02 -0.20798204322E+04  0.20817558126E+04  0.80419002446E+02 0.  1.
        -24    1    1    2    0    0 -0.10071208946E+02  0.38543324358E+02 -0.53756308386E+03  0.54500302952E+03  0.80419002446E+02 0. -1.
<mgrwt>
<rscale>  0 0.89745379E+02</rscale>
<asrwt>0</asrwt>
<pdfrwt beam="1">  1       22 0.93717780E-01 0.89745379E+02</pdfrwt>
<pdfrwt beam="2">0</pdfrwt>
<totfact> 0.10794979E-02</totfact>
</mgrwt>
</event>
<event>
 4    1  0.8963905E-004  0.9105864E+02  0.7546771E-02  0.1180253E+00
         22   -1    0    0    0    0  0.00000000000E+00  0.00000000000E+00  0.49126081231E+02  0.49126081231E+02  0.00000000000E+00 0.  1.
         22   -1    0    0    0    0 -0.00000000000E+00 -0.00000000000E+00 -0.61706452675E+03  0.61706452675E+03  0.00000000000E+00 0. -1.
         24    1    1    2    0    0  0.42425531823E+02  0.49531780604E+01 -0.60744659865E-01  0.91058658938E+02  0.80419002446E+02 0.  1.
        -24    1    1    2    0    0 -0.42425531823E+02 -0.49531780604E+01 -0.56787770086E+03  0.57513194905E+03  0.80419002446E+02 0. -1.
<mgrwt>
<rscale>  0 0.91058639E+02</rscale>
<asrwt>0</asrwt>
<pdfrwt beam="1">  1       22 0.98253113E+00 0.91058639E+02</pdfrwt>
<pdfrwt beam="2">0</pdfrwt>
<totfact> 0.13566406E-02</totfact>
</mgrwt>
</event>
<event>
 4    1  0.8963905E-004  0.8137447E+02  0.7546771E-02  0.1200623E+00
         22   -1    0    0    0    0  0.00000000000E+00  0.00000000000E+00  0.41272886573E+02  0.41272886573E+02  0.00000000000E+00 0.  1.
         22   -1    0    0    0    0 -0.00000000000E+00 -0.00000000000E+00 -0.31536157045E+03  0.31536157045E+03  0.00000000000E+00 0. -1.
         24    1    1    2    0    0 -0.84608556880E+01  0.91105995035E+01 -0.12062926494E+02  0.82263717715E+02  0.80419002446E+02 0.  1.
        -24    1    1    2    0    0  0.84608556880E+01 -0.91105995035E+01 -0.26202575738E+03  0.27437073931E+03  0.80419002446E+02 0. -1.
<mgrwt>
<rscale>  0 0.81374474E+02</rscale>
<asrwt>0</asrwt>
<pdfrwt beam="1">  1       22 0.82545867E+00 0.81374474E+02</pdfrwt>
<pdfrwt beam="2">0</pdfrwt>
<totfact> 0.57367962E-02</totfact>
</mgrwt>
</event>
<event>
 4    1  0.8963905E-004  0.9882293E+02  0.7546771E-02  0.1165867E+00
         22   -1    0    0    0    0  0.00000000000E+00  0.00000000000E+00  0.14686932489E+02  0.14686932489E+02  0.00000000000E+00 0.  1.
         22   -1    0    0    0    0 -0.00000000000E+00 -0.00000000000E+00 -0.96807334841E+03  0.96807334841E+03  0.00000000000E+00 0. -1.
         24    1    1    2    0    0 -0.45360786629E+02  0.35230017835E+02 -0.75165874770E+03  0.75812719518E+03  0.80419002446E+02 0. -1.
        -24    1    1    2    0    0  0.45360786629E+02 -0.35230017835E+02 -0.20172766822E+03  0.22463308572E+03  0.80419002446E+02 0.  1.
<mgrwt>
<rscale>  0 0.98822928E+02</rscale>
<asrwt>0</asrwt>
<pdfrwt beam="1">  1       22 0.29373329E+00 0.98822928E+02</pdfrwt>
<pdfrwt beam="2">0</pdfrwt>
<totfact> 0.35736721E-02</totfact>
</mgrwt>
</event>
<event>
 4    1  0.8963905E-004  0.8055680E+02  0.7546771E-02  0.1202488E+00
         22   -1    0    0    0    0  0.00000000000E+00  0.00000000000E+00  0.84779779659E+01  0.84779779659E+01  0.00000000000E+00 0. -1.
         22   -1    0    0    0    0 -0.00000000000E+00 -0.00000000000E+00 -0.88580019397E+03  0.88580019397E+03  0.00000000000E+00 0.  1.
         24    1    1    2    0    0 -0.46865662077E+01 -0.46649281159E+00 -0.27383985726E+03  0.28544292757E+03  0.80419002446E+02 0. -1.
        -24    1    1    2    0    0  0.46865662077E+01  0.46649281159E+00 -0.60348235875E+03  0.60883524437E+03  0.80419002446E+02 0.  1.
<mgrwt>
<rscale>  0 0.80556797E+02</rscale>
<asrwt>0</asrwt>
<pdfrwt beam="1">  1       22 0.16955898E+00 0.80556797E+02</pdfrwt>
<pdfrwt beam="2">0</pdfrwt>
<totfact> 0.86464599E-02</totfact>
</mgrwt>
</event>
<event>
 4    1  0.8963905E-004  0.1222821E+03  0.7546771E-02  0.1130048E+00
         22   -1    0    0    0    0  0.00000000000E+00  0.00000000000E+00  0.35838241408E+02  0.35838241408E+02  0.00000000000E+00 0. -1.
         22   -1    0    0    0    0 -0.00000000000E+00 -0.00000000000E+00 -0.42363766048E+03  0.42363766048E+03  0.00000000000E+00 0. -1.
         24    1    1    2    0    0  0.24013948552E+02  0.88932677586E+02 -0.22214683150E+03  0.25357862995E+03  0.80419002446E+02 0. -1.
        -24    1    1    2    0    0 -0.24013948552E+02 -0.88932677586E+02 -0.16565258758E+03  0.20589727194E+03  0.80419002446E+02 0. -1.
<mgrwt>
<rscale>  0 0.12228208E+03</rscale>
<asrwt>0</asrwt>
<pdfrwt beam="1">  1       22 0.71676509E+00 0.12228208E+03</pdfrwt>
<pdfrwt beam="2">0</pdfrwt>
<totfact> 0.45557255E-02</totfact>
</mgrwt>
</event>
<event>
 4    1  0.8963905E-004  0.8529724E+02  0.7546771E-02  0.1192007E+00
         22   -1    0    0    0    0  0.00000000000E+00  0.00000000000E+00  0.43773481130E+01  0.43773481130E+01  0.00000000000E+00 0.  1.
         22   -1    0    0    0    0 -0.00000000000E+00 -0.00000000000E+00 -0.19153857041E+04  0.19153857041E+04  0.00000000000E+00 0. -1.
         24    1    1    2    0    0  0.28422834461E+02 -0.73818726801E+00 -0.13045555497E+04  0.13073411187E+04  0.80419002446E+02 0. -1.
        -24    1    1    2    0    0 -0.28422834461E+02  0.73818726801E+00 -0.60645280634E+03  0.61242193356E+03  0.80419002446E+02 0.  1.
<mgrwt>
<rscale>  0 0.85297236E+02</rscale>
<asrwt>0</asrwt>
<pdfrwt beam="1">  1       22 0.87529205E-01 0.85297236E+02</pdfrwt>
<pdfrwt beam="2">0</pdfrwt>
<totfact> 0.31484046E-02</totfact>
</mgrwt>
</event>
<event>
 4    1  0.8963905E-004  0.1107988E+03  0.7546771E-02  0.1146348E+00
         22   -1    0    0    0    0  0.00000000000E+00  0.00000000000E+00  0.41922757081E+02  0.41922757081E+02  0.00000000000E+00 0. -1.
         22   -1    0    0    0    0 -0.00000000000E+00 -0.00000000000E+00 -0.78024203897E+03  0.78024203897E+03  0.00000000000E+00 0. -1.
         24    1    1    2    0    0  0.82145896069E+01 -0.75773934745E+02 -0.44251339725E+02  0.11930869914E+03  0.80419002446E+02 0. -1.
        -24    1    1    2    0    0 -0.82145896069E+01  0.75773934745E+02 -0.69406794216E+03  0.70285609691E+03  0.80419002446E+02 0. -1.
<mgrwt>
<rscale>  0 0.11079885E+03</rscale>
<asrwt>0</asrwt>
<pdfrwt beam="1">  1       22 0.83846237E+00 0.11079885E+03</pdfrwt>
<pdfrwt beam="2">0</pdfrwt>
<totfact> 0.11840153E-02</totfact>
</mgrwt>
</event>
<event>
 4    1  0.8963905E-004  0.1030831E+03  0.7546771E-02  0.1158587E+00
         22   -1    0    0    0    0  0.00000000000E+00  0.00000000000E+00  0.25601901721E+02  0.25601901721E+02  0.00000000000E+00 0. -1.
         22   -1    0    0    0    0 -0.00000000000E+00 -0.00000000000E+00 -0.46362255692E+03  0.46362255692E+03  0.00000000000E+00 0.  1.
         24    1    1    2    0    0 -0.44351408867E+02 -0.46817317695E+02 -0.29818416674E+03  0.31549948011E+03  0.80419002446E+02 0.  1.
        -24    1    1    2    0    0  0.44351408867E+02  0.46817317695E+02 -0.13983648846E+03  0.17372497852E+03  0.80419002446E+02 0.  0.
<mgrwt>
<rscale>  0 0.10308310E+03</rscale>
<asrwt>0</asrwt>
<pdfrwt beam="1">  1       22 0.51203602E+00 0.10308310E+03</pdfrwt>
<pdfrwt beam="2">0</pdfrwt>
<totfact> 0.64372031E-02</totfact>
</mgrwt>
</event>
<event>
 4    1  0.8963905E-004  0.8793293E+02  0.7546771E-02  0.1186505E+00
         22   -1    0    0    0    0  0.00000000000E+00  0.00000000000E+00  0.19088488633E+02  0.19088488633E+02  0.00000000000E+00 0.  1.
         22   -1    0    0    0    0 -0.00000000000E+00 -0.00000000000E+00 -0.43561773211E+03  0.43561773211E+03  0.00000000000E+00 0. -1.
         24    1    1    2    0    0  0.29872902574E+02 -0.19302689231E+02 -0.14806026290E+03  0.17220348871E+03  0.80419002446E+02 0.  0.
        -24    1    1    2    0    0 -0.29872902574E+02  0.19302689231E+02 -0.26846898057E+03  0.28250273203E+03  0.80419002446E+02 0.  1.
<mgrwt>
<rscale>  0 0.87932929E+02</rscale>
<asrwt>0</asrwt>
<pdfrwt beam="1">  1       22 0.38177007E+00 0.87932929E+02</pdfrwt>
<pdfrwt beam="2">0</pdfrwt>
<totfact> 0.10889850E-01</totfact>
</mgrwt>
</event>
<event>
 4    1  0.8963905E-004  0.9863525E+02  0.7546771E-02  0.1166197E+00
         22   -1    0    0    0    0  0.00000000000E+00  0.00000000000E+00  0.14375466959E+02  0.14375466959E+02  0.00000000000E+00 0.  1.
         22   -1    0    0    0    0 -0.00000000000E+00 -0.00000000000E+00 -0.68138830945E+03  0.68138830945E+03  0.00000000000E+00 0.  1.
         24    1    1    2    0    0  0.55461931258E+02 -0.13626139797E+02 -0.30487241266E+03  0.32043111812E+03  0.80419002446E+02 0.  1.
        -24    1    1    2    0    0 -0.55461931258E+02  0.13626139797E+02 -0.36214042984E+03  0.37533265829E+03  0.80419002446E+02 0.  1.
<mgrwt>
<rscale>  0 0.98635255E+02</rscale>
<asrwt>0</asrwt>
<pdfrwt beam="1">  1       22 0.28749443E+00 0.98635255E+02</pdfrwt>
<pdfrwt beam="2">0</pdfrwt>
<totfact> 0.73756262E-02</totfact>
</mgrwt>
</event>
<event>
 4    1  0.8963905E-004  0.8189326E+02  0.7546771E-02  0.1199453E+00
         22   -1    0    0    0    0  0.00000000000E+00  0.00000000000E+00  0.77725586332E+01  0.77725586332E+01  0.00000000000E+00 0. -1.
         22   -1    0    0    0    0 -0.00000000000E+00 -0.00000000000E+00 -0.10136343971E+04  0.10136343971E+04  0.00000000000E+00 0.  1.
         24    1    1    2    0    0  0.10882864384E+02 -0.10993300482E+02 -0.30595414028E+03  0.31672455115E+03  0.80419002446E+02 0.  0.
        -24    1    1    2    0    0 -0.10882864384E+02  0.10993300482E+02 -0.69990769815E+03  0.70468240455E+03  0.80419002446E+02 0.  1.
<mgrwt>
<rscale>  0 0.81893256E+02</rscale>
<asrwt>0</asrwt>
<pdfrwt beam="1">  1       22 0.15545747E+00 0.81893256E+02</pdfrwt>
<pdfrwt beam="2">0</pdfrwt>
<totfact> 0.72911116E-02</totfact>
</mgrwt>
</event>
<event>
 4    1  0.8963905E-004  0.9689203E+02  0.7546771E-02  0.1169303E+00
         22   -1    0    0    0    0  0.00000000000E+00  0.00000000000E+00  0.56628669837E+01  0.56628669837E+01  0.00000000000E+00 0.  1.
         22   -1    0    0    0    0 -0.00000000000E+00 -0.00000000000E+00 -0.45880907849E+04  0.45880907849E+04  0.00000000000E+00 0. -1.
         24    1    1    2    0    0 -0.51809117076E+02 -0.15383939951E+02 -0.41268006549E+04  0.41279379491E+04  0.80419002446E+02 0. -1.
        -24    1    1    2    0    0  0.51809117076E+02  0.15383939951E+02 -0.45562726305E+03  0.46581570283E+03  0.80419002446E+02 0.  1.
<mgrwt>
<rscale>  0 0.96892034E+02</rscale>
<asrwt>0</asrwt>
<pdfrwt beam="1">  1       22 0.11333115E+00 0.96892034E+02</pdfrwt>
<pdfrwt beam="2">0</pdfrwt>
<totfact> 0.31383503E-04</totfact>
</mgrwt>
</event>
<event>
 4    1  0.8963905E-004  0.1049058E+03  0.7546771E-02  0.1155590E+00
         22   -1    0    0    0    0  0.00000000000E+00  0.00000000000E+00  0.10228099286E+02  0.10228099286E+02  0.00000000000E+00 0. -1.
         22   -1    0    0    0    0 -0.00000000000E+00 -0.00000000000E+00 -0.10792693880E+04  0.10792693880E+04  0.00000000000E+00 0. -1.
         24    1    1    2    0    0  0.22563309075E+02 -0.63473716163E+02 -0.50444736219E+03  0.51524011173E+03  0.80419002446E+02 0. -1.
        -24    1    1    2    0    0 -0.22563309075E+02  0.63473716163E+02 -0.56459392651E+03  0.57425737554E+03  0.80419002446E+02 0. -1.
<mgrwt>
<rscale>  0 0.10490582E+03</rscale>
<asrwt>0</asrwt>
<pdfrwt beam="1">  1       22 0.20454364E+00 0.10490582E+03</pdfrwt>
<pdfrwt beam="2">0</pdfrwt>
<totfact> 0.45979928E-02</totfact>
</mgrwt>
</event>
<event>
 4    1  0.8963905E-004  0.1451708E+03  0.7546771E-02  0.1102789E+00
         22   -1    0    0    0    0  0.00000000000E+00  0.00000000000E+00  0.12409224843E+02  0.12409224843E+02  0.00000000000E+00 0. -1.
         22   -1    0    0    0    0 -0.00000000000E+00 -0.00000000000E+00 -0.20181438987E+04  0.20181438987E+04  0.00000000000E+00 0.  1.
         24    1    1    2    0    0 -0.12086057362E+03  0.24156920520E+00 -0.14070514047E+04  0.14145204870E+04  0.80419002446E+02 0.  1.
        -24    1    1    2    0    0  0.12086057362E+03 -0.24156920520E+00 -0.59868326917E+03  0.61603263660E+03  0.80419002446E+02 0. -1.
<mgrwt>
<rscale>  0 0.14517077E+03</rscale>
<asrwt>0</asrwt>
<pdfrwt beam="1">  1       22 0.24819766E+00 0.14517077E+03</pdfrwt>
<pdfrwt beam="2">0</pdfrwt>
<totfact> 0.78352287E-03</totfact>
</mgrwt>
</event>
<event>
 4    1  0.8963905E-004  0.1011886E+03  0.7546771E-02  0.1161775E+00
         22   -1    0    0    0    0  0.00000000000E+00  0.00000000000E+00  0.16529084090E+02  0.16529084090E+02  0.00000000000E+00 0.  1.
         22   -1    0    0    0    0 -0.00000000000E+00 -0.00000000000E+00 -0.18367820284E+04  0.18367820284E+04  0.00000000000E+00 0. -1.
         24    1    1    2    0    0  0.50425795364E+02  0.35059280020E+02 -0.15574326809E+03  0.18572855317E+03  0.80419002446E+02 0.  1.
        -24    1    1    2    0    0 -0.50425795364E+02 -0.35059280020E+02 -0.16645096762E+04  0.16675825593E+04  0.80419002446E+02 0. -1.
<mgrwt>
<rscale>  0 0.10118859E+03</rscale>
<asrwt>0</asrwt>
<pdfrwt beam="1">  1       22 0.33057693E+00 0.10118859E+03</pdfrwt>
<pdfrwt beam="2">0</pdfrwt>
<totfact> 0.67179928E-03</totfact>
</mgrwt>
</event>
<event>
 4    1  0.8963905E-004  0.9893240E+02  0.7546771E-02  0.1165675E+00
         22   -1    0    0    0    0  0.00000000000E+00  0.00000000000E+00  0.78924781893E+01  0.78924781893E+01  0.00000000000E+00 0. -1.
         22   -1    0    0    0    0 -0.00000000000E+00 -0.00000000000E+00 -0.27089535838E+04  0.27089535838E+04  0.00000000000E+00 0.  1.
         24    1    1    2    0    0  0.34778726304E+01  0.57517891183E+02 -0.35025290516E+03  0.36395702622E+03  0.80419002446E+02 0. -1.
        -24    1    1    2    0    0 -0.34778726304E+01 -0.57517891183E+02 -0.23508082005E+04  0.23528890358E+04  0.80419002446E+02 0.  1.
<mgrwt>
<rscale>  0 0.98932398E+02</rscale>
<asrwt>0</asrwt>
<pdfrwt beam="1">  1       22 0.15785951E+00 0.98932398E+02</pdfrwt>
<pdfrwt beam="2">0</pdfrwt>
<totfact> 0.51583054E-03</totfact>
</mgrwt>
</event>
<event>
 4    1  0.8963905E-004  0.8147694E+02  0.7546771E-02  0.1200391E+00
         22   -1    0    0    0    0  0.00000000000E+00  0.00000000000E+00  0.19945909482E+02  0.19945909482E+02  0.00000000000E+00 0. -1.
         22   -1    0    0    0    0 -0.00000000000E+00 -0.00000000000E+00 -0.35861219332E+03  0.35861219332E+03  0.00000000000E+00 0. -1.
         24    1    1    2    0    0 -0.12774360395E+02  0.28445638036E+01 -0.22008996163E+03  0.23468720244E+03  0.80419002446E+02 0. -1.
        -24    1    1    2    0    0  0.12774360395E+02 -0.28445638036E+01 -0.11857632221E+03  0.14387090036E+03  0.80419002446E+02 0. -1.
<mgrwt>
<rscale>  0 0.81476940E+02</rscale>
<asrwt>0</asrwt>
<pdfrwt beam="1">  1       22 0.39892052E+00 0.81476940E+02</pdfrwt>
<pdfrwt beam="2">0</pdfrwt>
<totfact> 0.14003240E-01</totfact>
</mgrwt>
</event>
<event>
 4    1  0.8963905E-004  0.8588020E+02  0.7546771E-02  0.1190771E+00
         22   -1    0    0    0    0  0.00000000000E+00  0.00000000000E+00  0.87793333999E+01  0.87793333999E+01  0.00000000000E+00 0. -1.
         22   -1    0    0    0    0 -0.00000000000E+00 -0.00000000000E+00 -0.17437631999E+04  0.17437631999E+04  0.00000000000E+00 0.  1.
         24    1    1    2    0    0  0.30016469171E+02 -0.26841988309E+01 -0.23667827151E+03  0.25177770653E+03  0.80419002446E+02 0. -1.
        -24    1    1    2    0    0 -0.30016469171E+02  0.26841988309E+01 -0.14983055950E+04  0.15007648268E+04  0.80419002446E+02 0.  1.
<mgrwt>
<rscale>  0 0.85880203E+02</rscale>
<asrwt>0</asrwt>
<pdfrwt beam="1">  1       22 0.17561888E+00 0.85880203E+02</pdfrwt>
<pdfrwt beam="2">0</pdfrwt>
<totfact> 0.17592266E-02</totfact>
</mgrwt>
</event>
<event>
 4    1  0.8963905E-004  0.8254371E+02  0.7546771E-02  0.1197999E+00
         22   -1    0    0    0    0  0.00000000000E+00  0.00000000000E+00  0.28674756439E+02  0.28674756439E+02  0.00000000000E+00 0.  1.
         22   -1    0    0    0    0 -0.00000000000E+00 -0.00000000000E+00 -0.42750978261E+03  0.42750978261E+03  0.00000000000E+00 0. -1.
         24    1    1    2    0    0 -0.18033970541E+02  0.45851358373E+01 -0.47398610606E+02  0.95184514528E+02  0.80419002446E+02 0.  1.
        -24    1    1    2    0    0  0.18033970541E+02 -0.45851358373E+01 -0.35143641556E+03  0.36100002452E+03  0.80419002446E+02 0. -1.
<mgrwt>
<rscale>  0 0.82543707E+02</rscale>
<asrwt>0</asrwt>
<pdfrwt beam="1">  1       22 0.57349740E+00 0.82543707E+02</pdfrwt>
<pdfrwt beam="2">0</pdfrwt>
<totfact> 0.61022978E-02</totfact>
</mgrwt>
</event>
<event>
 4    1  0.8963905E-004  0.8082039E+02  0.7546771E-02  0.1201884E+00
         22   -1    0    0    0    0  0.00000000000E+00  0.00000000000E+00  0.18580808952E+02  0.18580808952E+02  0.00000000000E+00 0. -1.
         22   -1    0    0    0    0 -0.00000000000E+00 -0.00000000000E+00 -0.58538120827E+03  0.58538120827E+03  0.00000000000E+00 0.  1.
         24    1    1    2    0    0 -0.80232057590E+01 -0.59021304933E+00 -0.47426192225E+03  0.48109906156E+03  0.80419002446E+02 0.  1.
        -24    1    1    2    0    0  0.80232057590E+01  0.59021304933E+00 -0.92538477072E+02  0.12286295567E+03  0.80419002446E+02 0. -1.
<mgrwt>
<rscale>  0 0.80820394E+02</rscale>
<asrwt>0</asrwt>
<pdfrwt beam="1">  1       22 0.37160931E+00 0.80820394E+02</pdfrwt>
<pdfrwt beam="2">0</pdfrwt>
<totfact> 0.67143746E-02</totfact>
</mgrwt>
</event>
<event>
 4    1  0.8963905E-004  0.8302432E+02  0.7546771E-02  0.1196934E+00
         22   -1    0    0    0    0  0.00000000000E+00  0.00000000000E+00  0.67159719241E+01  0.67159719241E+01  0.00000000000E+00 0.  1.
         22   -1    0    0    0    0 -0.00000000000E+00 -0.00000000000E+00 -0.10421318864E+04  0.10421318864E+04  0.00000000000E+00 0. -1.
         24    1    1    2    0    0 -0.42957145865E+01  0.20183356526E+02 -0.58221353272E+03  0.58810342176E+03  0.80419002446E+02 0.  0.
        -24    1    1    2    0    0  0.42957145865E+01 -0.20183356526E+02 -0.45320238173E+03  0.46074443654E+03  0.80419002446E+02 0.  1.
<mgrwt>
<rscale>  0 0.83024316E+02</rscale>
<asrwt>0</asrwt>
<pdfrwt beam="1">  1       22 0.13431994E+00 0.83024316E+02</pdfrwt>
<pdfrwt beam="2">0</pdfrwt>
<totfact> 0.82262199E-02</totfact>
</mgrwt>
</event>
<event>
 4    1  0.8963905E-004  0.8395200E+02  0.7546771E-02  0.1194902E+00
         22   -1    0    0    0    0  0.00000000000E+00  0.00000000000E+00  0.50438908021E+01  0.50438908021E+01  0.00000000000E+00 0.  1.
         22   -1    0    0    0    0 -0.00000000000E+00 -0.00000000000E+00 -0.18990985005E+04  0.18990985005E+04  0.00000000000E+00 0.  1.
         24    1    1    2    0    0 -0.18339115847E+02 -0.15633248563E+02 -0.45764190209E+03  0.46527846300E+03  0.80419002446E+02 0.  1.
        -24    1    1    2    0    0  0.18339115847E+02  0.15633248563E+02 -0.14364127076E+04  0.14388639283E+04  0.80419002446E+02 0.  1.
<mgrwt>
<rscale>  0 0.83951996E+02</rscale>
<asrwt>0</asrwt>
<pdfrwt beam="1">  1       22 0.10085189E+00 0.83951996E+02</pdfrwt>
<pdfrwt beam="2">0</pdfrwt>
<totfact> 0.27283503E-02</totfact>
</mgrwt>
</event>
<event>
 4    1  0.8963905E-004  0.9371801E+02  0.7546771E-02  0.1175151E+00
         22   -1    0    0    0    0  0.00000000000E+00  0.00000000000E+00  0.32598474163E+02  0.32598474163E+02  0.00000000000E+00 0.  1.
         22   -1    0    0    0    0 -0.00000000000E+00 -0.00000000000E+00 -0.26943210461E+03  0.26943210461E+03  0.00000000000E+00 0. -1.
         24    1    1    2    0    0 -0.31939445769E+02 -0.35996136069E+02 -0.11857419258E+03  0.15113869494E+03  0.80419002446E+02 0. -1.
        -24    1    1    2    0    0  0.31939445769E+02  0.35996136069E+02 -0.11825943787E+03  0.15089188383E+03  0.80419002446E+02 0.  1.
<mgrwt>
<rscale>  0 0.93718013E+02</rscale>
<asrwt>0</asrwt>
<pdfrwt beam="1">  1       22 0.65196547E+00 0.93718013E+02</pdfrwt>
<pdfrwt beam="2">0</pdfrwt>
<totfact> 0.10624428E-01</totfact>
</mgrwt>
</event>
<event>
 4    1  0.8963905E-004  0.9653985E+02  0.7546771E-02  0.1169940E+00
         22   -1    0    0    0    0  0.00000000000E+00  0.00000000000E+00  0.30444978554E+02  0.30444978554E+02  0.00000000000E+00 0. -1.
         22   -1    0    0    0    0 -0.00000000000E+00 -0.00000000000E+00 -0.37599936083E+03  0.37599936083E+03  0.00000000000E+00 0. -1.
         24    1    1    2    0    0 -0.33187103286E+02 -0.41849043301E+02 -0.85170113035E+02  0.12873962233E+03  0.80419002446E+02 0. -1.
        -24    1    1    2    0    0  0.33187103286E+02  0.41849043301E+02 -0.26038426924E+03  0.27770471705E+03  0.80419002446E+02 0. -1.
<mgrwt>
<rscale>  0 0.96539848E+02</rscale>
<asrwt>0</asrwt>
<pdfrwt beam="1">  1       22 0.60890697E+00 0.96539848E+02</pdfrwt>
<pdfrwt beam="2">0</pdfrwt>
<totfact> 0.69787802E-02</totfact>
</mgrwt>
</event>
<event>
 4    1  0.8963905E-004  0.1495128E+03  0.7546771E-02  0.1098241E+00
         22   -1    0    0    0    0  0.00000000000E+00  0.00000000000E+00  0.33675788617E+02  0.33675788617E+02  0.00000000000E+00 0.  1.
         22   -1    0    0    0    0 -0.00000000000E+00 -0.00000000000E+00 -0.66380350534E+03  0.66380350534E+03  0.00000000000E+00 0. -1.
         24    1    1    2    0    0 -0.53154005059E+02 -0.11428703078E+03 -0.31476049478E+03  0.34846557748E+03  0.80419002446E+02 0.  0.
        -24    1    1    2    0    0  0.53154005059E+02  0.11428703078E+03 -0.31536722195E+03  0.34901371648E+03  0.80419002446E+02 0.  0.
<mgrwt>
<rscale>  0 0.14951284E+03</rscale>
<asrwt>0</asrwt>
<pdfrwt beam="1">  1       22 0.67352295E+00 0.14951284E+03</pdfrwt>
<pdfrwt beam="2">0</pdfrwt>
<totfact> 0.23040478E-02</totfact>
</mgrwt>
</event>
<event>
 4    1  0.8963905E-004  0.8846241E+02  0.7546771E-02  0.1185425E+00
         22   -1    0    0    0    0  0.00000000000E+00  0.00000000000E+00  0.88913438749E+01  0.88913438749E+01  0.00000000000E+00 0. -1.
         22   -1    0    0    0    0 -0.00000000000E+00 -0.00000000000E+00 -0.10477251457E+04  0.10477251457E+04  0.00000000000E+00 0.  1.
         24    1    1    2    0    0 -0.34988962274E+02  0.11582540306E+02 -0.73071016449E+03  0.73604547629E+03  0.80419002446E+02 0.  1.
        -24    1    1    2    0    0  0.34988962274E+02 -0.11582540306E+02 -0.30812363735E+03  0.32057101330E+03  0.80419002446E+02 0.  0.
<mgrwt>
<rscale>  0 0.88462414E+02</rscale>
<asrwt>0</asrwt>
<pdfrwt beam="1">  1       22 0.17780347E+00 0.88462414E+02</pdfrwt>
<pdfrwt beam="2">0</pdfrwt>
<totfact> 0.57797250E-02</totfact>
</mgrwt>
</event>
<event>
 4    1  0.8963905E-004  0.8619438E+02  0.7546771E-02  0.1190109E+00
         22   -1    0    0    0    0  0.00000000000E+00  0.00000000000E+00  0.36136531111E+01  0.36136531111E+01  0.00000000000E+00 0.  1.
         22   -1    0    0    0    0 -0.00000000000E+00 -0.00000000000E+00 -0.21121656330E+04  0.21121656330E+04  0.00000000000E+00 0.  1.
         24    1    1    2    0    0  0.13316228443E+02  0.28016664076E+02 -0.12268697050E+04  0.12298937940E+04  0.80419002446E+02 0.  1.
        -24    1    1    2    0    0 -0.13316228443E+02 -0.28016664076E+02 -0.88168227481E+03  0.88588549208E+03  0.80419002446E+02 0.  1.
<mgrwt>
<rscale>  0 0.86194381E+02</rscale>
<asrwt>0</asrwt>
<pdfrwt beam="1">  1       22 0.72294247E-01 0.86194381E+02</pdfrwt>
<pdfrwt beam="2">0</pdfrwt>
<totfact> 0.29673446E-02</totfact>
</mgrwt>
</event>
<event>
 4    1  0.8963905E-004  0.1157992E+03  0.7546771E-02  0.1138993E+00
         22   -1    0    0    0    0  0.00000000000E+00  0.00000000000E+00  0.46033880739E+02  0.46033880739E+02  0.00000000000E+00 0.  1.
         22   -1    0    0    0    0 -0.00000000000E+00 -0.00000000000E+00 -0.35954337953E+03  0.35954337953E+03  0.00000000000E+00 0.  1.
         24    1    1    2    0    0 -0.82648401170E+02 -0.10557927945E+02 -0.68403275480E+02  0.13449331622E+03  0.80419002446E+02 0.  1.
        -24    1    1    2    0    0  0.82648401170E+02  0.10557927945E+02 -0.24510622331E+03  0.27108394404E+03  0.80419002446E+02 0.  1.
<mgrwt>
<rscale>  0 0.11579915E+03</rscale>
<asrwt>0</asrwt>
<pdfrwt beam="1">  1       22 0.92068475E+00 0.11579915E+03</pdfrwt>
<pdfrwt beam="2">0</pdfrwt>
<totfact> 0.40510155E-02</totfact>
</mgrwt>
</event>
<event>
 4    1  0.8963905E-004  0.9146130E+02  0.7546771E-02  0.1179468E+00
         22   -1    0    0    0    0  0.00000000000E+00  0.00000000000E+00  0.10482820221E+02  0.10482820221E+02  0.00000000000E+00 0. -1.
         22   -1    0    0    0    0 -0.00000000000E+00 -0.00000000000E+00 -0.28440771643E+04  0.28440771643E+04  0.00000000000E+00 0.  1.
         24    1    1    2    0    0  0.41804674646E+02 -0.12260629361E+02 -0.20619704090E+03  0.22557125145E+03  0.80419002446E+02 0. -1.
        -24    1    1    2    0    0 -0.41804674646E+02  0.12260629361E+02 -0.26273973031E+04  0.26289887330E+04  0.80419002446E+02 0.  1.
<mgrwt>
<rscale>  0 0.91461302E+02</rscale>
<asrwt>0</asrwt>
<pdfrwt beam="1">  1       22 0.20963806E+00 0.91461302E+02</pdfrwt>
<pdfrwt beam="2">0</pdfrwt>
<totfact> 0.29598190E-03</totfact>
</mgrwt>
</event>
<event>
 4    1  0.8963905E-004  0.9090415E+02  0.7546771E-02  0.1180555E+00
         22   -1    0    0    0    0  0.00000000000E+00  0.00000000000E+00  0.13482999746E+02  0.13482999746E+02  0.00000000000E+00 0.  1.
         22   -1    0    0    0    0 -0.00000000000E+00 -0.00000000000E+00 -0.63553242673E+03  0.63553242673E+03  0.00000000000E+00 0. -1.
         24    1    1    2    0    0 -0.24342401520E+02  0.34695773836E+02 -0.37227940603E+03  0.38321732913E+03  0.80419002446E+02 0. -1.
        -24    1    1    2    0    0  0.24342401520E+02 -0.34695773836E+02 -0.24977002096E+03  0.26579809735E+03  0.80419002446E+02 0. -1.
<mgrwt>
<rscale>  0 0.90904154E+02</rscale>
<asrwt>0</asrwt>
<pdfrwt beam="1">  1       22 0.26967446E+00 0.90904154E+02</pdfrwt>
<pdfrwt beam="2">0</pdfrwt>
<totfact> 0.91015298E-02</totfact>
</mgrwt>
</event>
<event>
 4    1  0.8963905E-004  0.8357949E+02  0.7546771E-02  0.1195715E+00
         22   -1    0    0    0    0  0.00000000000E+00  0.00000000000E+00  0.16436889181E+02  0.16436889181E+02  0.00000000000E+00 0. -1.
         22   -1    0    0    0    0 -0.00000000000E+00 -0.00000000000E+00 -0.42981598629E+03  0.42981598629E+03  0.00000000000E+00 0.  1.
         24    1    1    2    0    0 -0.12547619464E+02 -0.18996646050E+02 -0.18304918059E+03  0.20122756715E+03  0.80419002446E+02 0.  0.
        -24    1    1    2    0    0  0.12547619464E+02  0.18996646050E+02 -0.23032991652E+03  0.24502530831E+03  0.80419002446E+02 0. -1.
<mgrwt>
<rscale>  0 0.83579491E+02</rscale>
<asrwt>0</asrwt>
<pdfrwt beam="1">  1       22 0.32874304E+00 0.83579491E+02</pdfrwt>
<pdfrwt beam="2">0</pdfrwt>
<totfact> 0.13712196E-01</totfact>
</mgrwt>
</event>
<event>
 4    1  0.8963905E-004  0.1603896E+03  0.7546771E-02  0.1087558E+00
         22   -1    0    0    0    0  0.00000000000E+00  0.00000000000E+00  0.15207388188E+02  0.15207388188E+02  0.00000000000E+00 0.  1.
         22   -1    0    0    0    0 -0.00000000000E+00 -0.00000000000E+00 -0.16991467906E+04  0.16991467906E+04  0.00000000000E+00 0.  1.
         24    1    1    2    0    0 -0.13850616177E+03 -0.85826134204E+01 -0.89909199103E+03  0.91328595872E+03  0.80419002446E+02 0.  1.
        -24    1    1    2    0    0  0.13850616177E+03  0.85826134204E+01 -0.78484741140E+03  0.80106822009E+03  0.80419002446E+02 0.  1.
<mgrwt>
<rscale>  0 0.16038963E+03</rscale>
<asrwt>0</asrwt>
<pdfrwt beam="1">  1       22 0.30416438E+00 0.16038963E+03</pdfrwt>
<pdfrwt beam="2">0</pdfrwt>
<totfact> 0.96126475E-03</totfact>
</mgrwt>
</event>
<event>
 4    1  0.8963905E-004  0.1021246E+03  0.7546771E-02  0.1160190E+00
         22   -1    0    0    0    0  0.00000000000E+00  0.00000000000E+00  0.12714103824E+02  0.12714103824E+02  0.00000000000E+00 0.  1.
         22   -1    0    0    0    0 -0.00000000000E+00 -0.00000000000E+00 -0.18813813654E+04  0.18813813654E+04  0.00000000000E+00 0. -1.
         24    1    1    2    0    0  0.19259752946E+02  0.59927333758E+02 -0.22310893455E+03  0.24537122090E+03  0.80419002446E+02 0.  1.
        -24    1    1    2    0    0 -0.19259752946E+02 -0.59927333758E+02 -0.16455583271E+04  0.16487242484E+04  0.80419002446E+02 0. -1.
<mgrwt>
<rscale>  0 0.10212463E+03</rscale>
<asrwt>0</asrwt>
<pdfrwt beam="1">  1       22 0.25430199E+00 0.10212463E+03</pdfrwt>
<pdfrwt beam="2">0</pdfrwt>
<totfact> 0.90040392E-03</totfact>
</mgrwt>
</event>
<event>
 4    1  0.8963905E-004  0.8052306E+02  0.7546771E-02  0.1202566E+00
         22   -1    0    0    0    0  0.00000000000E+00  0.00000000000E+00  0.64407149293E+01  0.64407149293E+01  0.00000000000E+00 0. -1.
         22   -1    0    0    0    0 -0.00000000000E+00 -0.00000000000E+00 -0.10536674505E+04  0.10536674505E+04  0.00000000000E+00 0.  1.
         24    1    1    2    0    0 -0.35724356614E+01 -0.19963782381E+01 -0.41172165268E+03  0.41952196971E+03  0.80419002446E+02 0. -1.
        -24    1    1    2    0    0  0.35724356614E+01  0.19963782381E+01 -0.63550508291E+03  0.64058619575E+03  0.80419002446E+02 0.  1.
<mgrwt>
<rscale>  0 0.80523064E+02</rscale>
<asrwt>0</asrwt>
<pdfrwt beam="1">  1       22 0.12880819E+00 0.80523064E+02</pdfrwt>
<pdfrwt beam="2">0</pdfrwt>
<totfact> 0.84319567E-02</totfact>
</mgrwt>
</event>
<event>
 4    1  0.8963905E-004  0.8461724E+02  0.7546771E-02  0.1193463E+00
         22   -1    0    0    0    0  0.00000000000E+00  0.00000000000E+00  0.17412176443E+02  0.17412176443E+02  0.00000000000E+00 0.  1.
         22   -1    0    0    0    0 -0.00000000000E+00 -0.00000000000E+00 -0.11788241068E+04  0.11788241068E+04  0.00000000000E+00 0. -1.
         24    1    1    2    0    0  0.19446860060E+02  0.17739259116E+02 -0.10633574823E+04  0.10667189006E+04  0.80419002446E+02 0. -1.
        -24    1    1    2    0    0 -0.19446860060E+02 -0.17739259116E+02 -0.98054448046E+02  0.12951738268E+03  0.80419002446E+02 0.  1.
<mgrwt>
<rscale>  0 0.84617242E+02</rscale>
<asrwt>0</asrwt>
<pdfrwt beam="1">  1       22 0.34825788E+00 0.84617242E+02</pdfrwt>
<pdfrwt beam="2">0</pdfrwt>
<totfact> 0.18217583E-02</totfact>
</mgrwt>
</event>
<event>
 4    1  0.8963905E-004  0.1043948E+03  0.7546771E-02  0.1156423E+00
         22   -1    0    0    0    0  0.00000000000E+00  0.00000000000E+00  0.84421259627E+01  0.84421259627E+01  0.00000000000E+00 0. -1.
         22   -1    0    0    0    0 -0.00000000000E+00 -0.00000000000E+00 -0.12937885647E+04  0.12937885647E+04  0.00000000000E+00 0.  1.
         24    1    1    2    0    0  0.62698406888E+02 -0.22360036231E+02 -0.61212080420E+03  0.62095906173E+03  0.80419002446E+02 0.  1.
        -24    1    1    2    0    0 -0.62698406888E+02  0.22360036231E+02 -0.67322563455E+03  0.68127162895E+03  0.80419002446E+02 0.  0.
<mgrwt>
<rscale>  0 0.10439482E+03</rscale>
<asrwt>0</asrwt>
<pdfrwt beam="1">  1       22 0.16884157E+00 0.10439482E+03</pdfrwt>
<pdfrwt beam="2">0</pdfrwt>
<totfact> 0.39072361E-02</totfact>
</mgrwt>
</event>
<event>
 4    1  0.8963905E-004  0.9880342E+02  0.7546771E-02  0.1165902E+00
         22   -1    0    0    0    0  0.00000000000E+00  0.00000000000E+00  0.76152550633E+01  0.76152550633E+01  0.00000000000E+00 0. -1.
         22   -1    0    0    0    0 -0.00000000000E+00 -0.00000000000E+00 -0.14385834898E+04  0.14385834898E+04  0.00000000000E+00 0.  1.
         24    1    1    2    0    0  0.55975102629E+02  0.12715677498E+02 -0.47685686840E+03  0.48698520456E+03  0.80419002446E+02 0. -1.
        -24    1    1    2    0    0 -0.55975102629E+02 -0.12715677498E+02 -0.95411136635E+03  0.95921354031E+03  0.80419002446E+02 0.  1.
<mgrwt>
<rscale>  0 0.98803424E+02</rscale>
<asrwt>0</asrwt>
<pdfrwt beam="1">  1       22 0.15225351E+00 0.98803424E+02</pdfrwt>
<pdfrwt beam="2">0</pdfrwt>
<totfact> 0.34412281E-02</totfact>
</mgrwt>
</event>
<event>
 4    1  0.8963905E-004  0.9402210E+02  0.7546771E-02  0.1174579E+00
         22   -1    0    0    0    0  0.00000000000E+00  0.00000000000E+00  0.21360557527E+02  0.21360557527E+02  0.00000000000E+00 0.  1.
         22   -1    0    0    0    0 -0.00000000000E+00 -0.00000000000E+00 -0.41411649062E+03  0.41411649062E+03  0.00000000000E+00 0. -1.
         24    1    1    2    0    0  0.37866756401E+02 -0.30643883820E+02 -0.20185857542E+03  0.22268147494E+03  0.80419002446E+02 0.  0.
        -24    1    1    2    0    0 -0.37866756401E+02  0.30643883820E+02 -0.19089735767E+03  0.21279557320E+03  0.80419002446E+02 0.  0.
<mgrwt>
<rscale>  0 0.94022097E+02</rscale>
<asrwt>0</asrwt>
<pdfrwt beam="1">  1       22 0.42722347E+00 0.94022097E+02</pdfrwt>
<pdfrwt beam="2">0</pdfrwt>
<totfact> 0.10122457E-01</totfact>
</mgrwt>
</event>
<event>
 4    1  0.8963905E-004  0.8174668E+02  0.7546771E-02  0.1199783E+00
         22   -1    0    0    0    0  0.00000000000E+00  0.00000000000E+00  0.39993047173E+02  0.39993047173E+02  0.00000000000E+00 0.  1.
         22   -1    0    0    0    0 -0.00000000000E+00 -0.00000000000E+00 -0.17462545861E+03  0.17462545861E+03  0.00000000000E+00 0. -1.
         24    1    1    2    0    0  0.36289805369E+01 -0.14217398645E+02 -0.89604632382E+02  0.12129101378E+03  0.80419002446E+02 0. -1.
        -24    1    1    2    0    0 -0.36289805369E+01  0.14217398645E+02 -0.45027779060E+02  0.93327492013E+02  0.80419002446E+02 0.  1.
<mgrwt>
<rscale>  0 0.81746681E+02</rscale>
<asrwt>0</asrwt>
<pdfrwt beam="1">  1       22 0.79985983E+00 0.81746681E+02</pdfrwt>
<pdfrwt beam="2">0</pdfrwt>
<totfact> 0.14648648E-01</totfact>
</mgrwt>
</event>
<event>
 4    1  0.8963905E-004  0.8911569E+02  0.7546771E-02  0.1184105E+00
         22   -1    0    0    0    0  0.00000000000E+00  0.00000000000E+00  0.11287472414E+02  0.11287472414E+02  0.00000000000E+00 0. -1.
         22   -1    0    0    0    0 -0.00000000000E+00 -0.00000000000E+00 -0.70773846782E+03  0.70773846782E+03  0.00000000000E+00 0.  1.
         24    1    1    2    0    0 -0.12230089445E+01  0.38378314800E+02 -0.32065796764E+03  0.33281096581E+03  0.80419002446E+02 0.  1.
        -24    1    1    2    0    0  0.12230089445E+01 -0.38378314800E+02 -0.37579302776E+03  0.38621497442E+03  0.80419002446E+02 0.  1.
<mgrwt>
<rscale>  0 0.89115693E+02</rscale>
<asrwt>0</asrwt>
<pdfrwt beam="1">  1       22 0.22576170E+00 0.89115693E+02</pdfrwt>
<pdfrwt beam="2">0</pdfrwt>
<totfact> 0.93996213E-02</totfact>
</mgrwt>
</event>
<event>
 4    1  0.8963905E-004  0.9053785E+02  0.7546771E-02  0.1181275E+00
         22   -1    0    0    0    0  0.00000000000E+00  0.00000000000E+00  0.39887187660E+02  0.39887187660E+02  0.00000000000E+00 0. -1.
         22   -1    0    0    0    0 -0.00000000000E+00 -0.00000000000E+00 -0.31770947985E+03  0.31770947985E+03  0.00000000000E+00 0.  1.
         24    1    1    2    0    0  0.30736284457E+02 -0.28020841869E+02 -0.24516612655E+03  0.26134944485E+03  0.80419002446E+02 0.  1.
        -24    1    1    2    0    0 -0.30736284457E+02  0.28020841869E+02 -0.32656165641E+02  0.96247222661E+02  0.80419002446E+02 0.  0.
<mgrwt>
<rscale>  0 0.90537852E+02</rscale>
<asrwt>0</asrwt>
<pdfrwt beam="1">  1       22 0.79774764E+00 0.90537852E+02</pdfrwt>
<pdfrwt beam="2">0</pdfrwt>
<totfact> 0.60273700E-02</totfact>
</mgrwt>
</event>
<event>
 4    1  0.8963905E-004  0.1012298E+03  0.7546771E-02  0.1161705E+00
         22   -1    0    0    0    0  0.00000000000E+00  0.00000000000E+00  0.14331285584E+02  0.14331285584E+02  0.00000000000E+00 0. -1.
         22   -1    0    0    0    0 -0.00000000000E+00 -0.00000000000E+00 -0.10048618627E+04  0.10048618627E+04  0.00000000000E+00 0.  1.
         24    1    1    2    0    0 -0.61472292712E+02 -0.11930398034E+01 -0.76894135424E+03  0.77557610093E+03  0.80419002446E+02 0.  1.
        -24    1    1    2    0    0  0.61472292712E+02  0.11930398034E+01 -0.22158922292E+03  0.24361704740E+03  0.80419002446E+02 0. -1.
<mgrwt>
<rscale>  0 0.10122985E+03</rscale>
<asrwt>0</asrwt>
<pdfrwt beam="1">  1       22 0.28661762E+00 0.10122985E+03</pdfrwt>
<pdfrwt beam="2">0</pdfrwt>
<totfact> 0.34230444E-02</totfact>
</mgrwt>
</event>
<event>
 4    1  0.8963905E-004  0.9307134E+02  0.7546771E-02  0.1176374E+00
         22   -1    0    0    0    0  0.00000000000E+00  0.00000000000E+00  0.11377563410E+02  0.11377563410E+02  0.00000000000E+00 0.  1.
         22   -1    0    0    0    0 -0.00000000000E+00 -0.00000000000E+00 -0.10572118712E+04  0.10572118712E+04  0.00000000000E+00 0. -1.
         24    1    1    2    0    0  0.34566633933E+02 -0.31626032256E+02 -0.80556556477E+03  0.81092425861E+03  0.80419002446E+02 0.  0.
        -24    1    1    2    0    0 -0.34566633933E+02  0.31626032256E+02 -0.24026874299E+03  0.25766517597E+03  0.80419002446E+02 0.  1.
<mgrwt>
<rscale>  0 0.93071339E+02</rscale>
<asrwt>0</asrwt>
<pdfrwt beam="1">  1       22 0.22755219E+00 0.93071339E+02</pdfrwt>
<pdfrwt beam="2">0</pdfrwt>
<totfact> 0.41507089E-02</totfact>
</mgrwt>
</event>
<event>
 4    1  0.8963905E-004  0.8601266E+02  0.7546771E-02  0.1190492E+00
         22   -1    0    0    0    0  0.00000000000E+00  0.00000000000E+00  0.14960636112E+02  0.14960636112E+02  0.00000000000E+00 0. -1.
         22   -1    0    0    0    0 -0.00000000000E+00 -0.00000000000E+00 -0.73591301792E+03  0.73591301792E+03  0.00000000000E+00 0.  1.
         24    1    1    2    0    0 -0.22080240645E+01  0.30431666392E+02 -0.57550436527E+03  0.58189642729E+03  0.80419002446E+02 0.  1.
        -24    1    1    2    0    0  0.22080240645E+01 -0.30431666392E+02 -0.14544801654E+03  0.16897722675E+03  0.80419002446E+02 0. -1.
<mgrwt>
<rscale>  0 0.86012660E+02</rscale>
<asrwt>0</asrwt>
<pdfrwt beam="1">  1       22 0.29921171E+00 0.86012660E+02</pdfrwt>
<pdfrwt beam="2">0</pdfrwt>
<totfact> 0.59683528E-02</totfact>
</mgrwt>
</event>
<event>
 4    1  0.8963905E-004  0.1014292E+03  0.7546771E-02  0.1161366E+00
         22   -1    0    0    0    0  0.00000000000E+00  0.00000000000E+00  0.49166271755E+02  0.49166271755E+02  0.00000000000E+00 0. -1.
         22   -1    0    0    0    0 -0.00000000000E+00 -0.00000000000E+00 -0.17508882756E+04  0.17508882756E+04  0.00000000000E+00 0. -1.
         24    1    1    2    0    0 -0.39646563626E+02  0.47421635207E+02 -0.63250008486E+01  0.10162619290E+03  0.80419002446E+02 0. -1.
        -24    1    1    2    0    0  0.39646563626E+02 -0.47421635207E+02 -0.16953970029E+04  0.16984283544E+04  0.80419002446E+02 0. -1.
<mgrwt>
<rscale>  0 0.10142917E+03</rscale>
<asrwt>0</asrwt>
<pdfrwt beam="1">  1       22 0.98330840E+00 0.10142917E+03</pdfrwt>
<pdfrwt beam="2">0</pdfrwt>
<totfact> 0.14246755E-03</totfact>
</mgrwt>
</event>
<event>
 4    1  0.8963905E-004  0.8359715E+02  0.7546771E-02  0.1195676E+00
         22   -1    0    0    0    0  0.00000000000E+00  0.00000000000E+00  0.25986014229E+02  0.25986014229E+02  0.00000000000E+00 0.  1.
         22   -1    0    0    0    0 -0.00000000000E+00 -0.00000000000E+00 -0.64267357994E+03  0.64267357994E+03  0.00000000000E+00 0. -1.
         24    1    1    2    0    0  0.39251683307E+01  0.22491354758E+02 -0.53387760026E+02  0.99190407098E+02  0.80419002446E+02 0.  1.
        -24    1    1    2    0    0 -0.39251683307E+01 -0.22491354758E+02 -0.56329980568E+03  0.56946918707E+03  0.80419002446E+02 0. -1.
<mgrwt>
<rscale>  0 0.83597153E+02</rscale>
<asrwt>0</asrwt>
<pdfrwt beam="1">  1       22 0.51971952E+00 0.83597153E+02</pdfrwt>
<pdfrwt beam="2">0</pdfrwt>
<totfact> 0.34613531E-02</totfact>
</mgrwt>
</event>
<event>
 4    1  0.8963905E-004  0.9054944E+02  0.7546771E-02  0.1181252E+00
         22   -1    0    0    0    0  0.00000000000E+00  0.00000000000E+00  0.37371197900E+02  0.37371197900E+02  0.00000000000E+00 0. -1.
         22   -1    0    0    0    0 -0.00000000000E+00 -0.00000000000E+00 -0.10702729899E+04  0.10702729899E+04  0.00000000000E+00 0.  1.
         24    1    1    2    0    0  0.39743126336E+02 -0.12347812321E+02 -0.22645719105E+02  0.93338251045E+02  0.80419002446E+02 0. -1.
        -24    1    1    2    0    0 -0.39743126336E+02  0.12347812321E+02 -0.10102560729E+04  0.10143059368E+04  0.80419002446E+02 0.  1.
<mgrwt>
<rscale>  0 0.90549437E+02</rscale>
<asrwt>0</asrwt>
<pdfrwt beam="1">  1       22 0.74743966E+00 0.90549437E+02</pdfrwt>
<pdfrwt beam="2">0</pdfrwt>
<totfact> 0.72335670E-03</totfact>
</mgrwt>
</event>
<event>
 4    1  0.8963905E-004  0.1279867E+03  0.7546771E-02  0.1122671E+00
         22   -1    0    0    0    0  0.00000000000E+00  0.00000000000E+00  0.21081913308E+02  0.21081913308E+02  0.00000000000E+00 0. -1.
         22   -1    0    0    0    0 -0.00000000000E+00 -0.00000000000E+00 -0.32009986866E+04  0.32009986866E+04  0.00000000000E+00 0. -1.
         24    1    1    2    0    0  0.52457595920E+02  0.84626063228E+02 -0.29919005734E+04  0.29946368106E+04  0.80419002446E+02 0. -1.
        -24    1    1    2    0    0 -0.52457595920E+02 -0.84626063228E+02 -0.18801619988E+03  0.22744378936E+03  0.80419002446E+02 0. -1.
<mgrwt>
<rscale>  0 0.12798666E+03</rscale>
<asrwt>0</asrwt>
<pdfrwt beam="1">  1       22 0.42156353E+00 0.12798666E+03</pdfrwt>
<pdfrwt beam="2">0</pdfrwt>
<totfact> 0.69166001E-04</totfact>
</mgrwt>
</event>
<event>
 4    1  0.8963905E-004  0.8287147E+02  0.7546771E-02  0.1197272E+00
         22   -1    0    0    0    0  0.00000000000E+00  0.00000000000E+00  0.11247952426E+02  0.11247952426E+02  0.00000000000E+00 0.  1.
         22   -1    0    0    0    0 -0.00000000000E+00 -0.00000000000E+00 -0.63128590025E+03  0.63128590025E+03  0.00000000000E+00 0. -1.
         24    1    1    2    0    0  0.10020214684E+02 -0.17322226713E+02 -0.36821431446E+03  0.37742477604E+03  0.80419002446E+02 0. -1.
        -24    1    1    2    0    0 -0.10020214684E+02  0.17322226713E+02 -0.25182363337E+03  0.26510907664E+03  0.80419002446E+02 0.  1.
<mgrwt>
<rscale>  0 0.82871468E+02</rscale>
<asrwt>0</asrwt>
<pdfrwt beam="1">  1       22 0.22495616E+00 0.82871468E+02</pdfrwt>
<pdfrwt beam="2">0</pdfrwt>
<totfact> 0.11630041E-01</totfact>
</mgrwt>
</event>
<event>
 4    1  0.8963905E-004  0.9312758E+02  0.7546771E-02  0.1176267E+00
         22   -1    0    0    0    0  0.00000000000E+00  0.00000000000E+00  0.23055708398E+02  0.23055708398E+02  0.00000000000E+00 0. -1.
         22   -1    0    0    0    0 -0.00000000000E+00 -0.00000000000E+00 -0.29176184206E+04  0.29176184206E+04  0.00000000000E+00 0. -1.
         24    1    1    2    0    0  0.42016521473E+02  0.20979547749E+02 -0.28195645830E+04  0.28211021221E+04  0.80419002446E+02 0. -1.
        -24    1    1    2    0    0 -0.42016521473E+02 -0.20979547749E+02 -0.74998129184E+02  0.11957200691E+03  0.80419002446E+02 0. -1.
<mgrwt>
<rscale>  0 0.93127576E+02</rscale>
<asrwt>0</asrwt>
<pdfrwt beam="1">  1       22 0.46107967E+00 0.93127576E+02</pdfrwt>
<pdfrwt beam="2">0</pdfrwt>
<totfact> 0.89631273E-04</totfact>
</mgrwt>
</event>
<event>
 4    1  0.8963905E-004  0.8422882E+02  0.7546771E-02  0.1194302E+00
         22   -1    0    0    0    0  0.00000000000E+00  0.00000000000E+00  0.44297016225E+02  0.44297016225E+02  0.00000000000E+00 0.  1.
         22   -1    0    0    0    0 -0.00000000000E+00 -0.00000000000E+00 -0.17676410006E+04  0.17676410006E+04  0.00000000000E+00 0. -1.
         24    1    1    2    0    0  0.22699407432E+02 -0.10583756630E+02  0.22799468592E+01  0.84259676680E+02  0.80419002446E+02 0.  1.
        -24    1    1    2    0    0 -0.22699407432E+02  0.10583756630E+02 -0.17256239312E+04  0.17276783401E+04  0.80419002446E+02 0. -1.
<mgrwt>
<rscale>  0 0.84228825E+02</rscale>
<asrwt>0</asrwt>
<pdfrwt beam="1">  1       22 0.88593567E+00 0.84228825E+02</pdfrwt>
<pdfrwt beam="2">0</pdfrwt>
<totfact> 0.16819988E-03</totfact>
</mgrwt>
</event>
<event>
 4    1  0.8963905E-004  0.9072320E+02  0.7546771E-02  0.1180910E+00
         22   -1    0    0    0    0  0.00000000000E+00  0.00000000000E+00  0.41282485151E+02  0.41282485151E+02  0.00000000000E+00 0. -1.
         22   -1    0    0    0    0 -0.00000000000E+00 -0.00000000000E+00 -0.20500192963E+03  0.20500192963E+03  0.00000000000E+00 0.  1.
         24    1    1    2    0    0 -0.30088178507E+02 -0.29294802039E+02 -0.10226110473E+03  0.13670418211E+03  0.80419002446E+02 0.  0.
        -24    1    1    2    0    0  0.30088178507E+02  0.29294802039E+02 -0.61458339750E+02  0.10958023267E+03  0.80419002446E+02 0. -1.
<mgrwt>
<rscale>  0 0.90723205E+02</rscale>
<asrwt>0</asrwt>
<pdfrwt beam="1">  1       22 0.82565234E+00 0.90723205E+02</pdfrwt>
<pdfrwt beam="2">0</pdfrwt>
<totfact> 0.11157796E-01</totfact>
</mgrwt>
</event>
<event>
 4    1  0.8963905E-004  0.1005842E+03  0.7546771E-02  0.1162809E+00
         22   -1    0    0    0    0  0.00000000000E+00  0.00000000000E+00  0.48647094764E+02  0.48647094764E+02  0.00000000000E+00 0.  1.
         22   -1    0    0    0    0 -0.00000000000E+00 -0.00000000000E+00 -0.21531125007E+03  0.21531125007E+03  0.00000000000E+00 0.  1.
         24    1    1    2    0    0  0.56139372245E+02  0.22323370996E+02 -0.10770074129E+03  0.14736562570E+03  0.80419002446E+02 0.  1.
        -24    1    1    2    0    0 -0.56139372245E+02 -0.22323370996E+02 -0.58963414016E+02  0.11659271914E+03  0.80419002446E+02 0.  1.
<mgrwt>
<rscale>  0 0.10058418E+03</rscale>
<asrwt>0</asrwt>
<pdfrwt beam="1">  1       22 0.97294130E+00 0.10058418E+03</pdfrwt>
<pdfrwt beam="2">0</pdfrwt>
<totfact> 0.79056617E-02</totfact>
</mgrwt>
</event>
<event>
 4    1  0.8963905E-004  0.8202480E+02  0.7546771E-02  0.1199158E+00
         22   -1    0    0    0    0  0.00000000000E+00  0.00000000000E+00  0.28437133939E+02  0.28437133939E+02  0.00000000000E+00 0.  1.
         22   -1    0    0    0    0 -0.00000000000E+00 -0.00000000000E+00 -0.36623766856E+03  0.36623766856E+03  0.00000000000E+00 0. -1.
         24    1    1    2    0    0 -0.61551380547E+01 -0.14932034872E+02 -0.51490874003E+02  0.96847186071E+02  0.80419002446E+02 0.  1.
        -24    1    1    2    0    0  0.61551380547E+01  0.14932034872E+02 -0.28630966062E+03  0.29782761643E+03  0.80419002446E+02 0. -1.
<mgrwt>
<rscale>  0 0.82024797E+02</rscale>
<asrwt>0</asrwt>
<pdfrwt beam="1">  1       22 0.56874490E+00 0.82024797E+02</pdfrwt>
<pdfrwt beam="2">0</pdfrwt>
<totfact> 0.79744371E-02</totfact>
</mgrwt>
</event>
<event>
 4    1  0.8963905E-004  0.8111101E+02  0.7546771E-02  0.1201222E+00
         22   -1    0    0    0    0  0.00000000000E+00  0.00000000000E+00  0.12932178591E+02  0.12932178591E+02  0.00000000000E+00 0.  1.
         22   -1    0    0    0    0 -0.00000000000E+00 -0.00000000000E+00 -0.50873971212E+03  0.50873971212E+03  0.00000000000E+00 0. -1.
         24    1    1    2    0    0 -0.73397280208E+01  0.76097759063E+01 -0.24680586612E+03  0.25979247834E+03  0.80419002446E+02 0.  0.
        -24    1    1    2    0    0  0.73397280208E+01 -0.76097759063E+01 -0.24900166740E+03  0.26187941237E+03  0.80419002446E+02 0. -1.
<mgrwt>
<rscale>  0 0.81111012E+02</rscale>
<asrwt>0</asrwt>
<pdfrwt beam="1">  1       22 0.25864988E+00 0.81111012E+02</pdfrwt>
<pdfrwt beam="2">0</pdfrwt>
<totfact> 0.14222697E-01</totfact>
</mgrwt>
</event>
<event>
 4    1  0.8963905E-004  0.8074723E+02  0.7546771E-02  0.1202052E+00
         22   -1    0    0    0    0  0.00000000000E+00  0.00000000000E+00  0.10781821753E+02  0.10781821753E+02  0.00000000000E+00 0.  1.
         22   -1    0    0    0    0 -0.00000000000E+00 -0.00000000000E+00 -0.14306629458E+04  0.14306629458E+04  0.00000000000E+00 0. -1.
         24    1    1    2    0    0  0.72731639405E+01  0.10659034178E-01 -0.16233082998E+03  0.18130475268E+03  0.80419002446E+02 0.  1.
        -24    1    1    2    0    0 -0.72731639405E+01 -0.10659034178E-01 -0.12575502941E+04  0.12601400149E+04  0.80419002446E+02 0. -1.
<mgrwt>
<rscale>  0 0.80747229E+02</rscale>
<asrwt>0</asrwt>
<pdfrwt beam="1">  1       22 0.21567175E+00 0.80747229E+02</pdfrwt>
<pdfrwt beam="2">0</pdfrwt>
<totfact> 0.22164811E-02</totfact>
</mgrwt>
</event>
<event>
 4    1  0.8963905E-004  0.9903454E+02  0.7546771E-02  0.1165496E+00
         22   -1    0    0    0    0  0.00000000000E+00  0.00000000000E+00  0.44039926824E+01  0.44039926824E+01  0.00000000000E+00 0.  1.
         22   -1    0    0    0    0 -0.00000000000E+00 -0.00000000000E+00 -0.27937415222E+04  0.27937415222E+04  0.00000000000E+00 0. -1.
         24    1    1    2    0    0  0.12525804047E+02  0.56424536717E+02 -0.76454363904E+03  0.77093113575E+03  0.80419002446E+02 0.  1.
        -24    1    1    2    0    0 -0.12525804047E+02 -0.56424536717E+02 -0.20247938905E+04  0.20272143791E+04  0.80419002446E+02 0. -1.
<mgrwt>
<rscale>  0 0.99034540E+02</rscale>
<asrwt>0</asrwt>
<pdfrwt beam="1">  1       22 0.88073063E-01 0.99034540E+02</pdfrwt>
<pdfrwt beam="2">0</pdfrwt>
<totfact> 0.91900908E-03</totfact>
</mgrwt>
</event>
<event>
 4    1  0.8963905E-004  0.1224565E+03  0.7546771E-02  0.1129816E+00
         22   -1    0    0    0    0  0.00000000000E+00  0.00000000000E+00  0.44834319249E+02  0.44834319249E+02  0.00000000000E+00 0.  1.
         22   -1    0    0    0    0 -0.00000000000E+00 -0.00000000000E+00 -0.32075928076E+04  0.32075928076E+04  0.00000000000E+00 0. -1.
         24    1    1    2    0    0  0.87104380983E+02  0.30678934691E+02 -0.42284664132E+02  0.12955145308E+03  0.80419002446E+02 0.  1.
        -24    1    1    2    0    0 -0.87104380983E+02 -0.30678934691E+02 -0.31204738242E+04  0.31228756737E+04  0.80419002446E+02 0. -1.
<mgrwt>
<rscale>  0 0.12245647E+03</rscale>
<asrwt>0</asrwt>
<pdfrwt beam="1">  1       22 0.89667474E+00 0.12245647E+03</pdfrwt>
<pdfrwt beam="2">0</pdfrwt>
<totfact> 0.21825330E-04</totfact>
</mgrwt>
</event>
<event>
 4    1  0.8963905E-004  0.9789940E+02  0.7546771E-02  0.1167500E+00
         22   -1    0    0    0    0  0.00000000000E+00  0.00000000000E+00  0.80040981877E+01  0.80040981877E+01  0.00000000000E+00 0.  1.
         22   -1    0    0    0    0 -0.00000000000E+00 -0.00000000000E+00 -0.27062544850E+04  0.27062544850E+04  0.00000000000E+00 0. -1.
         24    1    1    2    0    0  0.44609290540E+02  0.33572125550E+02 -0.23624700244E+04  0.23644976018E+04  0.80419002446E+02 0. -1.
        -24    1    1    2    0    0 -0.44609290540E+02 -0.33572125550E+02 -0.33578036235E+03  0.34976098140E+03  0.80419002446E+02 0.  1.
<mgrwt>
<rscale>  0 0.97899399E+02</rscale>
<asrwt>0</asrwt>
<pdfrwt beam="1">  1       22 0.16006119E+00 0.97899399E+02</pdfrwt>
<pdfrwt beam="2">0</pdfrwt>
<totfact> 0.50822571E-03</totfact>
</mgrwt>
</event>
<event>
 4    1  0.8963905E-004  0.8915524E+02  0.7546771E-02  0.1184026E+00
         22   -1    0    0    0    0  0.00000000000E+00  0.00000000000E+00  0.40849535047E+02  0.40849535047E+02  0.00000000000E+00 0. -1.
         22   -1    0    0    0    0 -0.00000000000E+00 -0.00000000000E+00 -0.39398538776E+03  0.39398538776E+03  0.00000000000E+00 0.  1.
         24    1    1    2    0    0 -0.22458281263E+02  0.31258071512E+02 -0.21893441220E+02  0.91804031255E+02  0.80419002446E+02 0. -1.
        -24    1    1    2    0    0  0.22458281263E+02 -0.31258071512E+02 -0.33124241150E+03  0.34303089155E+03  0.80419002446E+02 0.  1.
<mgrwt>
<rscale>  0 0.89155243E+02</rscale>
<asrwt>0</asrwt>
<pdfrwt beam="1">  1       22 0.81698572E+00 0.89155243E+02</pdfrwt>
<pdfrwt beam="2">0</pdfrwt>
<totfact> 0.41024480E-02</totfact>
</mgrwt>
</event>
<event>
 4    1  0.8963905E-004  0.8818886E+02  0.7546771E-02  0.1185982E+00
         22   -1    0    0    0    0  0.00000000000E+00  0.00000000000E+00  0.51374500455E+01  0.51374500455E+01  0.00000000000E+00 0. -1.
         22   -1    0    0    0    0 -0.00000000000E+00 -0.00000000000E+00 -0.17013817323E+04  0.17013817323E+04  0.00000000000E+00 0. -1.
         24    1    1    2    0    0 -0.45143930138E+01 -0.35912110616E+02 -0.56483314468E+03  0.57167626915E+03  0.80419002446E+02 0. -1.
        -24    1    1    2    0    0  0.45143930138E+01  0.35912110616E+02 -0.11314111376E+04  0.11348429132E+04  0.80419002446E+02 0. -1.
<mgrwt>
<rscale>  0 0.88188862E+02</rscale>
<asrwt>0</asrwt>
<pdfrwt beam="1">  1       22 0.10275319E+00 0.88188862E+02</pdfrwt>
<pdfrwt beam="2">0</pdfrwt>
<totfact> 0.36018261E-02</totfact>
</mgrwt>
</event>
<event>
 4    1  0.8963905E-004  0.1089009E+03  0.7546771E-02  0.1149254E+00
         22   -1    0    0    0    0  0.00000000000E+00  0.00000000000E+00  0.40248000268E+02  0.40248000268E+02  0.00000000000E+00 0. -1.
         22   -1    0    0    0    0 -0.00000000000E+00 -0.00000000000E+00 -0.34517264376E+03  0.34517264376E+03  0.00000000000E+00 0. -1.
         24    1    1    2    0    0 -0.58561984715E+02  0.44302079924E+02 -0.78740623698E+02  0.13438557257E+03  0.80419002446E+02 0. -1.
        -24    1    1    2    0    0  0.58561984715E+02 -0.44302079924E+02 -0.22618401980E+03  0.25103507147E+03  0.80419002446E+02 0. -1.
<mgrwt>
<rscale>  0 0.10890086E+03</rscale>
<asrwt>0</asrwt>
<pdfrwt beam="1">  1       22 0.80496237E+00 0.10890086E+03</pdfrwt>
<pdfrwt beam="2">0</pdfrwt>
<totfact> 0.52952830E-02</totfact>
</mgrwt>
</event>
<event>
 4    1  0.8963905E-004  0.9080496E+02  0.7546771E-02  0.1180750E+00
         22   -1    0    0    0    0  0.00000000000E+00  0.00000000000E+00  0.33009104018E+02  0.33009104018E+02  0.00000000000E+00 0. -1.
         22   -1    0    0    0    0 -0.00000000000E+00 -0.00000000000E+00 -0.10949315143E+04  0.10949315143E+04  0.00000000000E+00 0. -1.
         24    1    1    2    0    0 -0.29355564507E+02  0.30275010708E+02 -0.35481415394E+02  0.97490882823E+02  0.80419002446E+02 0. -1.
        -24    1    1    2    0    0  0.29355564507E+02 -0.30275010708E+02 -0.10264409948E+04  0.10304497355E+04  0.80419002446E+02 0. -1.
<mgrwt>
<rscale>  0 0.90804963E+02</rscale>
<asrwt>0</asrwt>
<pdfrwt beam="1">  1       22 0.66018161E+00 0.90804963E+02</pdfrwt>
<pdfrwt beam="2">0</pdfrwt>
<totfact> 0.83222686E-03</totfact>
</mgrwt>
</event>
<event>
 4    1  0.8963905E-004  0.1063893E+03  0.7546771E-02  0.1153201E+00
         22   -1    0    0    0    0  0.00000000000E+00  0.00000000000E+00  0.31814887732E+02  0.31814887732E+02  0.00000000000E+00 0.  1.
         22   -1    0    0    0    0 -0.00000000000E+00 -0.00000000000E+00 -0.36162125398E+03  0.36162125398E+03  0.00000000000E+00 0. -1.
         24    1    1    2    0    0 -0.68278948719E+02 -0.13763820222E+02 -0.18993364978E+03  0.21770040161E+03  0.80419002446E+02 0. -1.
        -24    1    1    2    0    0  0.68278948719E+02  0.13763820222E+02 -0.13987271647E+03  0.17573574011E+03  0.80419002446E+02 0.  1.
<mgrwt>
<rscale>  0 0.10638925E+03</rscale>
<asrwt>0</asrwt>
<pdfrwt beam="1">  1       22 0.63629069E+00 0.10638925E+03</pdfrwt>
<pdfrwt beam="2">0</pdfrwt>
<totfact> 0.70086029E-02</totfact>
</mgrwt>
</event>
<event>
 4    1  0.8963905E-004  0.9497988E+02  0.7546771E-02  0.1172795E+00
         22   -1    0    0    0    0  0.00000000000E+00  0.00000000000E+00  0.57524227380E+01  0.57524227380E+01  0.00000000000E+00 0. -1.
         22   -1    0    0    0    0 -0.00000000000E+00 -0.00000000000E+00 -0.19801242965E+04  0.19801242965E+04  0.00000000000E+00 0.  1.
         24    1    1    2    0    0  0.25562181329E+02  0.43595150331E+02 -0.14400457602E+04  0.14431746151E+04  0.80419002446E+02 0.  0.
        -24    1    1    2    0    0 -0.25562181329E+02 -0.43595150331E+02 -0.53432611358E+03  0.54270210415E+03  0.80419002446E+02 0.  0.
<mgrwt>
<rscale>  0 0.94979883E+02</rscale>
<asrwt>0</asrwt>
<pdfrwt beam="1">  1       22 0.11506804E+00 0.94979883E+02</pdfrwt>
<pdfrwt beam="2">0</pdfrwt>
<totfact> 0.20965426E-02</totfact>
</mgrwt>
</event>
<event>
 4    1  0.8963905E-004  0.1558871E+03  0.7546771E-02  0.1091864E+00
         22   -1    0    0    0    0  0.00000000000E+00  0.00000000000E+00  0.36270063182E+02  0.36270063182E+02  0.00000000000E+00 0. -1.
         22   -1    0    0    0    0 -0.00000000000E+00 -0.00000000000E+00 -0.96925761539E+03  0.96925761539E+03  0.00000000000E+00 0.  1.
         24    1    1    2    0    0 -0.39403481720E+02 -0.12759683021E+03 -0.18713015725E+03  0.24355388964E+03  0.80419002446E+02 0. -1.
        -24    1    1    2    0    0  0.39403481720E+02  0.12759683021E+03 -0.74585739496E+03  0.76197378893E+03  0.80419002446E+02 0.  1.
<mgrwt>
<rscale>  0 0.15588714E+03</rscale>
<asrwt>0</asrwt>
<pdfrwt beam="1">  1       22 0.72543778E+00 0.15588714E+03</pdfrwt>
<pdfrwt beam="2">0</pdfrwt>
<totfact> 0.97846622E-03</totfact>
</mgrwt>
</event>
<event>
 4    1  0.8963905E-004  0.9482528E+02  0.7546771E-02  0.1173082E+00
         22   -1    0    0    0    0  0.00000000000E+00  0.00000000000E+00  0.30515726469E+02  0.30515726469E+02  0.00000000000E+00 0. -1.
         22   -1    0    0    0    0 -0.00000000000E+00 -0.00000000000E+00 -0.39934367531E+03  0.39934367531E+03  0.00000000000E+00 0.  1.
         24    1    1    2    0    0  0.49298747324E+02 -0.97083348917E+01 -0.74372161995E+02  0.12051162885E+03  0.80419002446E+02 0. -1.
        -24    1    1    2    0    0 -0.49298747324E+02  0.97083348917E+01 -0.29445578685E+03  0.30934777293E+03  0.80419002446E+02 0.  1.
<mgrwt>
<rscale>  0 0.94825283E+02</rscale>
<asrwt>0</asrwt>
<pdfrwt beam="1">  1       22 0.61032311E+00 0.94825283E+02</pdfrwt>
<pdfrwt beam="2">0</pdfrwt>
<totfact> 0.62889945E-02</totfact>
</mgrwt>
</event>
<event>
 4    1  0.1252614E-003  0.1307872E+03  0.7546771E-02  0.1119203E+00
         22   -1    0    0    0    0  0.00000000000E+00  0.00000000000E+00  0.19354385498E+02  0.19354385498E+02  0.00000000000E+00 0. -1.
         22   -1    0    0    0    0 -0.00000000000E+00 -0.00000000000E+00 -0.39408068416E+04  0.39408068416E+04  0.00000000000E+00 0.  1.
         24    1    1    2    0    0  0.95573086341E+02 -0.38779654104E+02 -0.21675659074E+03  0.25315748456E+03  0.80419002446E+02 0. -1.
        -24    1    1    2    0    0 -0.95573086341E+02  0.38779654104E+02 -0.37046958653E+04  0.37070037425E+04  0.80419002446E+02 0.  1.
<mgrwt>
<rscale>  0 0.13078720E+03</rscale>
<asrwt>0</asrwt>
<pdfrwt beam="1">  1       22 0.38709668E+00 0.13078720E+03</pdfrwt>
<pdfrwt beam="2">0</pdfrwt>
<totfact> 0.23400832E-04</totfact>
</mgrwt>
</event>
<event>
 4    1  0.8963905E-004  0.8229193E+02  0.7546771E-02  0.1198560E+00
         22   -1    0    0    0    0  0.00000000000E+00  0.00000000000E+00  0.23348072924E+02  0.23348072924E+02  0.00000000000E+00 0. -1.
         22   -1    0    0    0    0 -0.00000000000E+00 -0.00000000000E+00 -0.16783033869E+04  0.16783033869E+04  0.00000000000E+00 0.  1.
         24    1    1    2    0    0 -0.13351878851E+02  0.11245990746E+02 -0.53656251050E+02  0.98239270192E+02  0.80419002446E+02 0. -1.
        -24    1    1    2    0    0  0.13351878851E+02 -0.11245990746E+02 -0.16012990630E+04  0.16034121897E+04  0.80419002446E+02 0.  1.
<mgrwt>
<rscale>  0 0.82291925E+02</rscale>
<asrwt>0</asrwt>
<pdfrwt beam="1">  1       22 0.46695448E+00 0.82291925E+02</pdfrwt>
<pdfrwt beam="2">0</pdfrwt>
<totfact> 0.50946602E-03</totfact>
</mgrwt>
</event>
<event>
 4    1  0.8963905E-004  0.8836516E+02  0.7546771E-02  0.1185623E+00
         22   -1    0    0    0    0  0.00000000000E+00  0.00000000000E+00  0.49959058834E+02  0.49959058834E+02  0.00000000000E+00 0. -1.
         22   -1    0    0    0    0 -0.00000000000E+00 -0.00000000000E+00 -0.19524421658E+03  0.19524421658E+03  0.00000000000E+00 0. -1.
         24    1    1    2    0    0 -0.31720078096E+02 -0.18303633387E+02 -0.12740098918E+03  0.15504649092E+03  0.80419002446E+02 0. -1.
        -24    1    1    2    0    0  0.31720078096E+02  0.18303633387E+02 -0.17884168565E+02  0.90156784488E+02  0.80419002446E+02 0. -1.
<mgrwt>
<rscale>  0 0.88365165E+02</rscale>
<asrwt>0</asrwt>
<pdfrwt beam="1">  1       22 0.99918086E+00 0.88365165E+02</pdfrwt>
<pdfrwt beam="2">0</pdfrwt>
<totfact> 0.72772331E-02</totfact>
</mgrwt>
</event>
<event>
 4    1  0.8963905E-004  0.9501035E+02  0.7546771E-02  0.1172739E+00
         22   -1    0    0    0    0  0.00000000000E+00  0.00000000000E+00  0.38878091589E+02  0.38878091589E+02  0.00000000000E+00 0. -1.
         22   -1    0    0    0    0 -0.00000000000E+00 -0.00000000000E+00 -0.66140565789E+03  0.66140565789E+03  0.00000000000E+00 0.  1.
         24    1    1    2    0    0  0.45289317109E+02 -0.22552807933E+02 -0.29198485996E+02  0.99395769169E+02  0.80419002446E+02 0. -1.
        -24    1    1    2    0    0 -0.45289317109E+02  0.22552807933E+02 -0.59332908031E+03  0.60088798031E+03  0.80419002446E+02 0.  1.
<mgrwt>
<rscale>  0 0.95010354E+02</rscale>
<asrwt>0</asrwt>
<pdfrwt beam="1">  1       22 0.77756382E+00 0.95010354E+02</pdfrwt>
<pdfrwt beam="2">0</pdfrwt>
<totfact> 0.17946576E-02</totfact>
</mgrwt>
</event>
<event>
 4    1  0.8963905E-004  0.9098712E+02  0.7546771E-02  0.1180393E+00
         22   -1    0    0    0    0  0.00000000000E+00  0.00000000000E+00  0.48360158672E+01  0.48360158672E+01  0.00000000000E+00 0. -1.
         22   -1    0    0    0    0 -0.00000000000E+00 -0.00000000000E+00 -0.18321838813E+04  0.18321838813E+04  0.00000000000E+00 0. -1.
         24    1    1    2    0    0 -0.84473819533E+01 -0.41714296278E+02 -0.67830593750E+03  0.68438118149E+03  0.80419002446E+02 0.  0.
        -24    1    1    2    0    0  0.84473819533E+01  0.41714296278E+02 -0.11490419280E+04  0.11526387157E+04  0.80419002446E+02 0.  0.
<mgrwt>
<rscale>  0 0.90987124E+02</rscale>
<asrwt>0</asrwt>
<pdfrwt beam="1">  1       22 0.96709386E-01 0.90987124E+02</pdfrwt>
<pdfrwt beam="2">0</pdfrwt>
<totfact> 0.31823069E-02</totfact>
</mgrwt>
</event>
<event>
 4    1  0.8963905E-004  0.9224984E+02  0.7546771E-02  0.1177944E+00
         22   -1    0    0    0    0  0.00000000000E+00  0.00000000000E+00  0.44601747872E+02  0.44601747872E+02  0.00000000000E+00 0. -1.
         22   -1    0    0    0    0 -0.00000000000E+00 -0.00000000000E+00 -0.30043423201E+03  0.30043423201E+03  0.00000000000E+00 0.  1.
         24    1    1    2    0    0  0.38434929971E+01  0.45033820843E+02 -0.23700845253E+02  0.95245805567E+02  0.80419002446E+02 0. -1.
        -24    1    1    2    0    0 -0.38434929971E+01 -0.45033820843E+02 -0.23213163888E+03  0.24979017431E+03  0.80419002446E+02 0.  1.
<mgrwt>
<rscale>  0 0.92249842E+02</rscale>
<asrwt>0</asrwt>
<pdfrwt beam="1">  1       22 0.89203757E+00 0.92249842E+02</pdfrwt>
<pdfrwt beam="2">0</pdfrwt>
<totfact> 0.55590233E-02</totfact>
</mgrwt>
</event>
<event>
 4    1  0.8963905E-004  0.1272857E+03  0.7546771E-02  0.1123554E+00
         22   -1    0    0    0    0  0.00000000000E+00  0.00000000000E+00  0.13790058104E+02  0.13790058104E+02  0.00000000000E+00 0. -1.
         22   -1    0    0    0    0 -0.00000000000E+00 -0.00000000000E+00 -0.12311239577E+04  0.12311239577E+04  0.00000000000E+00 0. -1.
         24    1    1    2    0    0 -0.11916470579E+02 -0.97940916591E+02 -0.74171318576E+03  0.75255570644E+03  0.80419002446E+02 0. -1.
        -24    1    1    2    0    0  0.11916470579E+02  0.97940916591E+02 -0.47562071384E+03  0.49235830937E+03  0.80419002446E+02 0. -1.
<mgrwt>
<rscale>  0 0.12728567E+03</rscale>
<asrwt>0</asrwt>
<pdfrwt beam="1">  1       22 0.27581938E+00 0.12728567E+03</pdfrwt>
<pdfrwt beam="2">0</pdfrwt>
<totfact> 0.23541227E-02</totfact>
</mgrwt>
</event>
<event>
 4    1  0.8963905E-004  0.8480215E+02  0.7546771E-02  0.1193066E+00
         22   -1    0    0    0    0  0.00000000000E+00  0.00000000000E+00  0.42836995020E+02  0.42836995020E+02  0.00000000000E+00 0.  1.
         22   -1    0    0    0    0 -0.00000000000E+00 -0.00000000000E+00 -0.61858045080E+03  0.61858045080E+03  0.00000000000E+00 0. -1.
         24    1    1    2    0    0 -0.17680808738E+02  0.20287378484E+02 -0.57015967726E+03  0.57643166313E+03  0.80419002446E+02 0. -1.
        -24    1    1    2    0    0  0.17680808738E+02 -0.20287378484E+02 -0.55837785178E+01  0.84985782695E+02  0.80419002446E+02 0.  1.
<mgrwt>
<rscale>  0 0.84802150E+02</rscale>
<asrwt>0</asrwt>
<pdfrwt beam="1">  1       22 0.85675328E+00 0.84802150E+02</pdfrwt>
<pdfrwt beam="2">0</pdfrwt>
<totfact> 0.17363111E-02</totfact>
</mgrwt>
</event>
<event>
 4    1  0.8963905E-004  0.8286714E+02  0.7546771E-02  0.1197282E+00
         22   -1    0    0    0    0  0.00000000000E+00  0.00000000000E+00  0.12822565980E+02  0.12822565980E+02  0.00000000000E+00 0. -1.
         22   -1    0    0    0    0 -0.00000000000E+00 -0.00000000000E+00 -0.53555701283E+03  0.53555701283E+03  0.00000000000E+00 0. -1.
         24    1    1    2    0    0 -0.18661190436E+02  0.71767908805E+01 -0.25970354685E+03  0.27260391516E+03  0.80419002446E+02 0.  1.
        -24    1    1    2    0    0  0.18661190436E+02 -0.71767908805E+01 -0.26303090000E+03  0.27577566365E+03  0.80419002446E+02 0.  1.
<mgrwt>
<rscale>  0 0.82867136E+02</rscale>
<asrwt>0</asrwt>
<pdfrwt beam="1">  1       22 0.25644474E+00 0.82867136E+02</pdfrwt>
<pdfrwt beam="2">0</pdfrwt>
<totfact> 0.13165681E-01</totfact>
</mgrwt>
</event>
<event>
 4    1  0.8963905E-004  0.8845248E+02  0.7546771E-02  0.1185445E+00
         22   -1    0    0    0    0  0.00000000000E+00  0.00000000000E+00  0.10131128953E+02  0.10131128953E+02  0.00000000000E+00 0. -1.
         22   -1    0    0    0    0 -0.00000000000E+00 -0.00000000000E+00 -0.12802811587E+04  0.12802811587E+04  0.00000000000E+00 0.  1.
         24    1    1    2    0    0 -0.24248571112E+02  0.27724207730E+02 -0.22864313725E+03  0.24515612385E+03  0.80419002446E+02 0. -1.
        -24    1    1    2    0    0  0.24248571112E+02 -0.27724207730E+02 -0.10415068925E+04  0.10452561638E+04  0.80419002446E+02 0.  1.
<mgrwt>
<rscale>  0 0.88452478E+02</rscale>
<asrwt>0</asrwt>
<pdfrwt beam="1">  1       22 0.20262103E+00 0.88452478E+02</pdfrwt>
<pdfrwt beam="2">0</pdfrwt>
<totfact> 0.31393364E-02</totfact>
</mgrwt>
</event>
<event>
 4    1  0.8963905E-004  0.1139165E+03  0.7546771E-02  0.1141713E+00
         22   -1    0    0    0    0  0.00000000000E+00  0.00000000000E+00  0.75944748251E+01  0.75944748251E+01  0.00000000000E+00 0.  1.
         22   -1    0    0    0    0 -0.00000000000E+00 -0.00000000000E+00 -0.20323769999E+04  0.20323769999E+04  0.00000000000E+00 0. -1.
         24    1    1    2    0    0  0.60271406204E+02 -0.53638690804E+02 -0.14194175018E+04  0.14239813945E+04  0.80419002446E+02 0.  0.
        -24    1    1    2    0    0 -0.60271406204E+02  0.53638690804E+02 -0.60536502326E+03  0.61599008020E+03  0.80419002446E+02 0.  0.
<mgrwt>
<rscale>  0 0.11391649E+03</rscale>
<asrwt>0</asrwt>
<pdfrwt beam="1">  1       22 0.15187593E+00 0.11391649E+03</pdfrwt>
<pdfrwt beam="2">0</pdfrwt>
<totfact> 0.14082119E-02</totfact>
</mgrwt>
</event>
<event>
 4    1  0.8963905E-004  0.1259092E+03  0.7546771E-02  0.1125308E+00
         22   -1    0    0    0    0  0.00000000000E+00  0.00000000000E+00  0.10412964130E+02  0.10412964130E+02  0.00000000000E+00 0.  1.
         22   -1    0    0    0    0 -0.00000000000E+00 -0.00000000000E+00 -0.17089194632E+04  0.17089194632E+04  0.00000000000E+00 0.  1.
         24    1    1    2    0    0 -0.45808949193E+02 -0.85366524432E+02 -0.11332307135E+04  0.11402039156E+04  0.80419002446E+02 0.  1.
        -24    1    1    2    0    0  0.45808949193E+02  0.85366524432E+02 -0.56527578556E+03  0.57912851166E+03  0.80419002446E+02 0.  1.
<mgrwt>
<rscale>  0 0.12590917E+03</rscale>
<asrwt>0</asrwt>
<pdfrwt beam="1">  1       22 0.20829031E+00 0.12590917E+03</pdfrwt>
<pdfrwt beam="2">0</pdfrwt>
<totfact> 0.15372065E-02</totfact>
</mgrwt>
</event>
<event>
 4    1  0.8963905E-004  0.8975860E+02  0.7546771E-02  0.1182818E+00
         22   -1    0    0    0    0  0.00000000000E+00  0.00000000000E+00  0.33537107686E+02  0.33537107686E+02  0.00000000000E+00 0.  1.
         22   -1    0    0    0    0 -0.00000000000E+00 -0.00000000000E+00 -0.28039053963E+03  0.28039053963E+03  0.00000000000E+00 0. -1.
         24    1    1    2    0    0  0.38219405859E+02  0.11343159392E+02 -0.18283127625E+03  0.20367592341E+03  0.80419002446E+02 0. -1.
        -24    1    1    2    0    0 -0.38219405859E+02 -0.11343159392E+02 -0.64022155697E+02  0.11025172390E+03  0.80419002446E+02 0.  1.
<mgrwt>
<rscale>  0 0.89758600E+02</rscale>
<asrwt>0</asrwt>
<pdfrwt beam="1">  1       22 0.67074189E+00 0.89758600E+02</pdfrwt>
<pdfrwt beam="2">0</pdfrwt>
<totfact> 0.95310936E-02</totfact>
</mgrwt>
</event>
<event>
 4    1  0.8963905E-004  0.8203028E+02  0.7546771E-02  0.1199145E+00
         22   -1    0    0    0    0  0.00000000000E+00  0.00000000000E+00  0.15972725944E+02  0.15972725944E+02  0.00000000000E+00 0.  1.
         22   -1    0    0    0    0 -0.00000000000E+00 -0.00000000000E+00 -0.65668821994E+03  0.65668821994E+03  0.00000000000E+00 0.  1.
         24    1    1    2    0    0  0.48611918666E+01 -0.15431111957E+02 -0.52172960694E+03  0.52813894868E+03  0.80419002446E+02 0.  1.
        -24    1    1    2    0    0 -0.48611918666E+01  0.15431111957E+02 -0.11898588706E+03  0.14452199720E+03  0.80419002446E+02 0.  1.
<mgrwt>
<rscale>  0 0.82030277E+02</rscale>
<asrwt>0</asrwt>
<pdfrwt beam="1">  1       22 0.31945924E+00 0.82030277E+02</pdfrwt>
<pdfrwt beam="2">0</pdfrwt>
<totfact> 0.67385691E-02</totfact>
</mgrwt>
</event>
<event>
 4    1  0.8963905E-004  0.8338998E+02  0.7546771E-02  0.1196130E+00
         22   -1    0    0    0    0  0.00000000000E+00  0.00000000000E+00  0.47128190945E+02  0.47128190945E+02  0.00000000000E+00 0.  1.
         22   -1    0    0    0    0 -0.00000000000E+00 -0.00000000000E+00 -0.39543792667E+03  0.39543792667E+03  0.00000000000E+00 0. -1.
         24    1    1    2    0    0  0.37836275852E+01 -0.21733791725E+02  0.10452409036E+01  0.83396534840E+02  0.80419002446E+02 0.  1.
        -24    1    1    2    0    0 -0.37836275852E+01  0.21733791725E+02 -0.34935497663E+03  0.35916958277E+03  0.80419002446E+02 0. -1.
<mgrwt>
<rscale>  0 0.83389984E+02</rscale>
<asrwt>0</asrwt>
<pdfrwt beam="1">  1       22 0.94257102E+00 0.83389984E+02</pdfrwt>
<pdfrwt beam="2">0</pdfrwt>
<totfact> 0.32268646E-02</totfact>
</mgrwt>
</event>
<event>
 4    1  0.8963905E-004  0.8364840E+02  0.7546771E-02  0.1195564E+00
         22   -1    0    0    0    0  0.00000000000E+00  0.00000000000E+00  0.12532885056E+02  0.12532885056E+02  0.00000000000E+00 0.  1.
         22   -1    0    0    0    0 -0.00000000000E+00 -0.00000000000E+00 -0.62096961024E+03  0.62096961024E+03  0.00000000000E+00 0. -1.
         24    1    1    2    0    0  0.85563594733E+00 -0.23002331769E+02 -0.20358854276E+03  0.22010304423E+03  0.80419002446E+02 0.  1.
        -24    1    1    2    0    0 -0.85563594733E+00  0.23002331769E+02 -0.40484818241E+03  0.41339945106E+03  0.80419002446E+02 0. -1.
<mgrwt>
<rscale>  0 0.83648403E+02</rscale>
<asrwt>0</asrwt>
<pdfrwt beam="1">  1       22 0.25065736E+00 0.83648403E+02</pdfrwt>
<pdfrwt beam="2">0</pdfrwt>
<totfact> 0.10404826E-01</totfact>
</mgrwt>
</event>
<event>
 4    1  0.8963905E-004  0.1340756E+03  0.7546771E-02  0.1115251E+00
         22   -1    0    0    0    0  0.00000000000E+00  0.00000000000E+00  0.46591620206E+02  0.46591620206E+02  0.00000000000E+00 0. -1.
         22   -1    0    0    0    0 -0.00000000000E+00 -0.00000000000E+00 -0.47443476509E+03  0.47443476509E+03  0.00000000000E+00 0.  1.
         24    1    1    2    0    0 -0.12877258960E+01  0.10727254002E+03 -0.32650620029E+03  0.35296256297E+03  0.80419002446E+02 0.  1.
        -24    1    1    2    0    0  0.12877258960E+01 -0.10727254002E+03 -0.10133694459E+03  0.16806382232E+03  0.80419002446E+02 0. -1.
<mgrwt>
<rscale>  0 0.13407562E+03</rscale>
<asrwt>0</asrwt>
<pdfrwt beam="1">  1       22 0.93183321E+00 0.13407562E+03</pdfrwt>
<pdfrwt beam="2">0</pdfrwt>
<totfact> 0.25330641E-02</totfact>
</mgrwt>
</event>
<event>
 4    1  0.8963905E-004  0.1139715E+03  0.7546771E-02  0.1141633E+00
         22   -1    0    0    0    0  0.00000000000E+00  0.00000000000E+00  0.48160421713E+02  0.48160421713E+02  0.00000000000E+00 0. -1.
         22   -1    0    0    0    0 -0.00000000000E+00 -0.00000000000E+00 -0.89370793372E+03  0.89370793372E+03  0.00000000000E+00 0. -1.
         24    1    1    2    0    0  0.80121179403E+02 -0.10143455112E+02 -0.29266440032E+02  0.11766916987E+03  0.80419002446E+02 0. -1.
        -24    1    1    2    0    0 -0.80121179403E+02  0.10143455112E+02 -0.81628107198E+03  0.82419918557E+03  0.80419002446E+02 0. -1.
<mgrwt>
<rscale>  0 0.11397153E+03</rscale>
<asrwt>0</asrwt>
<pdfrwt beam="1">  1       22 0.96321140E+00 0.11397153E+03</pdfrwt>
<pdfrwt beam="2">0</pdfrwt>
<totfact> 0.71801395E-03</totfact>
</mgrwt>
</event>
<event>
 4    1  0.8963905E-004  0.1533201E+03  0.7546771E-02  0.1094391E+00
         22   -1    0    0    0    0  0.00000000000E+00  0.00000000000E+00  0.35560541101E+02  0.35560541101E+02  0.00000000000E+00 0.  1.
         22   -1    0    0    0    0 -0.00000000000E+00 -0.00000000000E+00 -0.17003420040E+04  0.17003420040E+04  0.00000000000E+00 0. -1.
         24    1    1    2    0    0 -0.50317190068E+02  0.12044929061E+03 -0.15381653958E+03  0.21717871679E+03  0.80419002446E+02 0.  1.
        -24    1    1    2    0    0  0.50317190068E+02 -0.12044929061E+03 -0.15109649233E+04  0.15187238283E+04  0.80419002446E+02 0. -1.
<mgrwt>
<rscale>  0 0.15332015E+03</rscale>
<asrwt>0</asrwt>
<pdfrwt beam="1">  1       22 0.71120968E+00 0.15332015E+03</pdfrwt>
<pdfrwt beam="2">0</pdfrwt>
<totfact> 0.27381021E-03</totfact>
</mgrwt>
</event>
<event>
 4    1  0.8963905E-004  0.1355661E+03  0.7546771E-02  0.1113501E+00
         22   -1    0    0    0    0  0.00000000000E+00  0.00000000000E+00  0.12651990206E+02  0.12651990206E+02  0.00000000000E+00 0. -1.
         22   -1    0    0    0    0 -0.00000000000E+00 -0.00000000000E+00 -0.16807969905E+04  0.16807969905E+04  0.00000000000E+00 0.  1.
         24    1    1    2    0    0  0.10028526893E+03 -0.43056025319E+02 -0.11460674827E+04  0.11540575581E+04  0.80419002446E+02 0.  0.
        -24    1    1    2    0    0 -0.10028526893E+03  0.43056025319E+02 -0.52207751757E+03  0.53939142262E+03  0.80419002446E+02 0.  0.
<mgrwt>
<rscale>  0 0.13556612E+03</rscale>
<asrwt>0</asrwt>
<pdfrwt beam="1">  1       22 0.25301318E+00 0.13556612E+03</pdfrwt>
<pdfrwt beam="2">0</pdfrwt>
<totfact> 0.12510901E-02</totfact>
</mgrwt>
</event>
<event>
 4    1  0.8963905E-004  0.8882551E+02  0.7546771E-02  0.1184690E+00
         22   -1    0    0    0    0  0.00000000000E+00  0.00000000000E+00  0.26197371583E+02  0.26197371583E+02  0.00000000000E+00 0. -1.
         22   -1    0    0    0    0 -0.00000000000E+00 -0.00000000000E+00 -0.90986582844E+03  0.90986582844E+03  0.00000000000E+00 0. -1.
         24    1    1    2    0    0  0.32521903770E+02 -0.19107098746E+02 -0.82464590595E+03  0.82941596416E+03  0.80419002446E+02 0. -1.
        -24    1    1    2    0    0 -0.32521903770E+02  0.19107098746E+02 -0.59022550903E+02  0.10664723586E+03  0.80419002446E+02 0. -1.
<mgrwt>
<rscale>  0 0.88825511E+02</rscale>
<asrwt>0</asrwt>
<pdfrwt beam="1">  1       22 0.52393822E+00 0.88825511E+02</pdfrwt>
<pdfrwt beam="2">0</pdfrwt>
<totfact> 0.17471382E-02</totfact>
</mgrwt>
</event>
<event>
 4    1  0.8963905E-004  0.1045358E+03  0.7546771E-02  0.1156193E+00
         22   -1    0    0    0    0  0.00000000000E+00  0.00000000000E+00  0.44117217384E+01  0.44117217384E+01  0.00000000000E+00 0. -1.
         22   -1    0    0    0    0 -0.00000000000E+00 -0.00000000000E+00 -0.26386002834E+04  0.26386002834E+04  0.00000000000E+00 0. -1.
         24    1    1    2    0    0  0.66781506737E+02 -0.86966653770E+00 -0.16441574714E+04  0.16474773239E+04  0.80419002446E+02 0. -1.
        -24    1    1    2    0    0 -0.66781506737E+02  0.86966653770E+00 -0.99003109020E+03  0.99553468120E+03  0.80419002446E+02 0. -1.
<mgrwt>
<rscale>  0 0.10453584E+03</rscale>
<asrwt>0</asrwt>
<pdfrwt beam="1">  1       22 0.88202573E-01 0.10453584E+03</pdfrwt>
<pdfrwt beam="2">0</pdfrwt>
<totfact> 0.11445347E-02</totfact>
</mgrwt>
</event>
<event>
 4    1  0.8963905E-004  0.1069196E+03  0.7546771E-02  0.1152358E+00
         22   -1    0    0    0    0  0.00000000000E+00  0.00000000000E+00  0.44719671857E+02  0.44719671857E+02  0.00000000000E+00 0. -1.
         22   -1    0    0    0    0 -0.00000000000E+00 -0.00000000000E+00 -0.51484700783E+03  0.51484700783E+03  0.00000000000E+00 0. -1.
         24    1    1    2    0    0 -0.68344473040E+02  0.17135227247E+02 -0.36539925481E+02  0.11299099573E+03  0.80419002446E+02 0. -1.
        -24    1    1    2    0    0  0.68344473040E+02 -0.17135227247E+02 -0.43358741049E+03  0.44657568395E+03  0.80419002446E+02 0. -1.
<mgrwt>
<rscale>  0 0.10691959E+03</rscale>
<asrwt>0</asrwt>
<pdfrwt beam="1">  1       22 0.89439060E+00 0.10691959E+03</pdfrwt>
<pdfrwt beam="2">0</pdfrwt>
<totfact> 0.23044740E-02</totfact>
</mgrwt>
</event>
<event>
 4    1  0.8963905E-004  0.1077068E+03  0.7546771E-02  0.1151115E+00
         22   -1    0    0    0    0  0.00000000000E+00  0.00000000000E+00  0.62035948310E+01  0.62035948310E+01  0.00000000000E+00 0.  1.
         22   -1    0    0    0    0 -0.00000000000E+00 -0.00000000000E+00 -0.18754392904E+04  0.18754392904E+04  0.00000000000E+00 0. -1.
         24    1    1    2    0    0 -0.70586998772E+02 -0.12288853229E+02 -0.88397613712E+03  0.89051365361E+03  0.80419002446E+02 0.  1.
        -24    1    1    2    0    0  0.70586998772E+02  0.12288853229E+02 -0.98525955847E+03  0.99112923164E+03  0.80419002446E+02 0.  0.
<mgrwt>
<rscale>  0 0.10770681E+03</rscale>
<asrwt>0</asrwt>
<pdfrwt beam="1">  1       22 0.12407507E+00 0.10770681E+03</pdfrwt>
<pdfrwt beam="2">0</pdfrwt>
<totfact> 0.22502496E-02</totfact>
</mgrwt>
</event>
<event>
 4    1  0.8963905E-004  0.8545133E+02  0.7546771E-02  0.1191679E+00
         22   -1    0    0    0    0  0.00000000000E+00  0.00000000000E+00  0.35176627860E+02  0.35176627860E+02  0.00000000000E+00 0.  1.
         22   -1    0    0    0    0 -0.00000000000E+00 -0.00000000000E+00 -0.22828087434E+03  0.22828087434E+03  0.00000000000E+00 0.  1.
         24    1    1    2    0    0 -0.24759093670E+02  0.14889611385E+02 -0.13622106863E+03  0.16080456691E+03  0.80419002446E+02 0.  1.
        -24    1    1    2    0    0  0.24759093670E+02 -0.14889611385E+02 -0.56883177847E+02  0.10265293529E+03  0.80419002446E+02 0.  1.
<mgrwt>
<rscale>  0 0.85451327E+02</rscale>
<asrwt>0</asrwt>
<pdfrwt beam="1">  1       22 0.70352926E+00 0.85451327E+02</pdfrwt>
<pdfrwt beam="2">0</pdfrwt>
<totfact> 0.12060838E-01</totfact>
</mgrwt>
</event>
<event>
 4    1  0.8963905E-004  0.8750931E+02  0.7546771E-02  0.1187374E+00
         22   -1    0    0    0    0  0.00000000000E+00  0.00000000000E+00  0.39664757933E+02  0.39664757933E+02  0.00000000000E+00 0.  1.
         22   -1    0    0    0    0 -0.00000000000E+00 -0.00000000000E+00 -0.10091879553E+04  0.10091879553E+04  0.00000000000E+00 0.  1.
         24    1    1    2    0    0 -0.28649758753E+02 -0.19231618561E+02 -0.13158928107E+02  0.88493147601E+02  0.80419002446E+02 0.  1.
        -24    1    1    2    0    0  0.28649758753E+02  0.19231618561E+02 -0.95636426925E+03  0.96035956563E+03  0.80419002446E+02 0.  1.
<mgrwt>
<rscale>  0 0.87509313E+02</rscale>
<asrwt>0</asrwt>
<pdfrwt beam="1">  1       22 0.79328236E+00 0.87509313E+02</pdfrwt>
<pdfrwt beam="2">0</pdfrwt>
<totfact> 0.74717753E-03</totfact>
</mgrwt>
</event>
<event>
 4    1  0.8963905E-004  0.1016398E+03  0.7546771E-02  0.1161009E+00
         22   -1    0    0    0    0  0.00000000000E+00  0.00000000000E+00  0.13223936743E+02  0.13223936743E+02  0.00000000000E+00 0. -1.
         22   -1    0    0    0    0 -0.00000000000E+00 -0.00000000000E+00 -0.86903996310E+03  0.86903996310E+03  0.00000000000E+00 0. -1.
         24    1    1    2    0    0 -0.51544394592E+02  0.34736336050E+02 -0.56814848278E+03  0.57716839145E+03  0.80419002446E+02 0. -1.
        -24    1    1    2    0    0  0.51544394592E+02 -0.34736336050E+02 -0.28766754358E+03  0.30509550839E+03  0.80419002446E+02 0. -1.
<mgrwt>
<rscale>  0 0.10163982E+03</rscale>
<asrwt>0</asrwt>
<pdfrwt beam="1">  1       22 0.26448011E+00 0.10163982E+03</pdfrwt>
<pdfrwt beam="2">0</pdfrwt>
<totfact> 0.51518083E-02</totfact>
</mgrwt>
</event>
<event>
 4    1  0.8963905E-004  0.8390737E+02  0.7546771E-02  0.1194999E+00
         22   -1    0    0    0    0  0.00000000000E+00  0.00000000000E+00  0.19324602537E+02  0.19324602537E+02  0.00000000000E+00 0.  1.
         22   -1    0    0    0    0 -0.00000000000E+00 -0.00000000000E+00 -0.40664659723E+03  0.40664659723E+03  0.00000000000E+00 0.  1.
         24    1    1    2    0    0 -0.46239023683E+00  0.23937762164E+02 -0.26237099513E+03  0.27546140437E+03  0.80419002446E+02 0.  0.
        -24    1    1    2    0    0  0.46239023683E+00 -0.23937762164E+02 -0.12495099957E+03  0.15050979539E+03  0.80419002446E+02 0.  0.
<mgrwt>
<rscale>  0 0.83907367E+02</rscale>
<asrwt>0</asrwt>
<pdfrwt beam="1">  1       22 0.38648889E+00 0.83907367E+02</pdfrwt>
<pdfrwt beam="2">0</pdfrwt>
<totfact> 0.11958362E-01</totfact>
</mgrwt>
</event>
<event>
 4    1  0.8963905E-004  0.1201486E+03  0.7546771E-02  0.1132923E+00
         22   -1    0    0    0    0  0.00000000000E+00  0.00000000000E+00  0.45282400336E+02  0.45282400336E+02  0.00000000000E+00 0. -1.
         22   -1    0    0    0    0 -0.00000000000E+00 -0.00000000000E+00 -0.66504369953E+03  0.66504369953E+03  0.00000000000E+00 0. -1.
         24    1    1    2    0    0  0.71324765046E+02 -0.53677349719E+02 -0.53610371147E+02  0.13156659086E+03  0.80419002446E+02 0. -1.
        -24    1    1    2    0    0 -0.71324765046E+02  0.53677349719E+02 -0.56615092805E+03  0.57875950900E+03  0.80419002446E+02 0. -1.
<mgrwt>
<rscale>  0 0.12014864E+03</rscale>
<asrwt>0</asrwt>
<pdfrwt beam="1">  1       22 0.90566192E+00 0.12014864E+03</pdfrwt>
<pdfrwt beam="2">0</pdfrwt>
<totfact> 0.14368842E-02</totfact>
</mgrwt>
</event>
<event>
 4    1  0.8963905E-004  0.8443171E+02  0.7546771E-02  0.1193863E+00
         22   -1    0    0    0    0  0.00000000000E+00  0.00000000000E+00  0.65111451470E+01  0.65111451470E+01  0.00000000000E+00 0.  1.
         22   -1    0    0    0    0 -0.00000000000E+00 -0.00000000000E+00 -0.11115119705E+04  0.11115119705E+04  0.00000000000E+00 0. -1.
         24    1    1    2    0    0 -0.39681171056E+01  0.25411651409E+02 -0.62094727956E+03  0.62666118272E+03  0.80419002446E+02 0. -1.
        -24    1    1    2    0    0  0.39681171056E+01 -0.25411651409E+02 -0.48405354579E+03  0.49136193293E+03  0.80419002446E+02 0.  0.
<mgrwt>
<rscale>  0 0.84431712E+02</rscale>
<asrwt>0</asrwt>
<pdfrwt beam="1">  1       22 0.13021230E+00 0.84431712E+02</pdfrwt>
<pdfrwt beam="2">0</pdfrwt>
<totfact> 0.74380323E-02</totfact>
</mgrwt>
</event>
<event>
 4    1  0.8963905E-004  0.1045789E+03  0.7546771E-02  0.1156123E+00
         22   -1    0    0    0    0  0.00000000000E+00  0.00000000000E+00  0.16802079854E+02  0.16802079854E+02  0.00000000000E+00 0.  1.
         22   -1    0    0    0    0 -0.00000000000E+00 -0.00000000000E+00 -0.21833498287E+04  0.21833498287E+04  0.00000000000E+00 0. -1.
         24    1    1    2    0    0  0.27250041445E+02 -0.61048946961E+02 -0.20048936234E+04  0.20076192856E+04  0.80419002446E+02 0. -1.
        -24    1    1    2    0    0 -0.27250041445E+02  0.61048946961E+02 -0.16165412543E+03  0.19253262296E+03  0.80419002446E+02 0.  1.
<mgrwt>
<rscale>  0 0.10457894E+03</rscale>
<asrwt>0</asrwt>
<pdfrwt beam="1">  1       22 0.33601650E+00 0.10457894E+03</pdfrwt>
<pdfrwt beam="2">0</pdfrwt>
<totfact> 0.40016648E-03</totfact>
</mgrwt>
</event>
<event>
 4    1  0.8963905E-004  0.9376723E+02  0.7546771E-02  0.1175058E+00
         22   -1    0    0    0    0  0.00000000000E+00  0.00000000000E+00  0.45575403979E+01  0.45575403979E+01  0.00000000000E+00 0. -1.
         22   -1    0    0    0    0 -0.00000000000E+00 -0.00000000000E+00 -0.20713966981E+04  0.20713966981E+04  0.00000000000E+00 0.  1.
         24    1    1    2    0    0 -0.85075477810E+01  0.47462598436E+02 -0.76143817442E+03  0.76718992827E+03  0.80419002446E+02 0. -1.
        -24    1    1    2    0    0  0.85075477810E+01 -0.47462598436E+02 -0.13054009833E+04  0.13087643102E+04  0.80419002446E+02 0.  0.
<mgrwt>
<rscale>  0 0.93767225E+02</rscale>
<asrwt>0</asrwt>
<pdfrwt beam="1">  1       22 0.91117944E-01 0.93767225E+02</pdfrwt>
<pdfrwt beam="2">0</pdfrwt>
<totfact> 0.24162013E-02</totfact>
</mgrwt>
</event>
<event>
 4    1  0.8963905E-004  0.9124225E+02  0.7546771E-02  0.1179894E+00
         22   -1    0    0    0    0  0.00000000000E+00  0.00000000000E+00  0.11469019588E+02  0.11469019588E+02  0.00000000000E+00 0. -1.
         22   -1    0    0    0    0 -0.00000000000E+00 -0.00000000000E+00 -0.10463915862E+04  0.10463915862E+04  0.00000000000E+00 0.  1.
         24    1    1    2    0    0 -0.16448563686E+02  0.39841893279E+02 -0.22472788979E+03  0.24254437143E+03  0.80419002446E+02 0. -1.
        -24    1    1    2    0    0  0.16448563686E+02 -0.39841893279E+02 -0.81019467683E+03  0.81531623437E+03  0.80419002446E+02 0.  1.
<mgrwt>
<rscale>  0 0.91242247E+02</rscale>
<asrwt>0</asrwt>
<pdfrwt beam="1">  1       22 0.22939413E+00 0.91242247E+02</pdfrwt>
<pdfrwt beam="2">0</pdfrwt>
<totfact> 0.41929534E-02</totfact>
</mgrwt>
</event>
<event>
 4    1  0.8963905E-004  0.8045734E+02  0.7546771E-02  0.1202717E+00
         22   -1    0    0    0    0  0.00000000000E+00  0.00000000000E+00  0.47456971050E+02  0.47456971050E+02  0.00000000000E+00 0.  1.
         22   -1    0    0    0    0 -0.00000000000E+00 -0.00000000000E+00 -0.61118423698E+03  0.61118423698E+03  0.00000000000E+00 0.  1.
         24    1    1    2    0    0  0.14373589761E+01  0.20253894069E+01 -0.57211784821E+03  0.57774753690E+03  0.80419002446E+02 0.  1.
        -24    1    1    2    0    0 -0.14373589761E+01 -0.20253894069E+01  0.83905822800E+01  0.80893671127E+02  0.80419002446E+02 0.  1.
<mgrwt>
<rscale>  0 0.80457344E+02</rscale>
<asrwt>0</asrwt>
<pdfrwt beam="1">  1       22 0.94914971E+00 0.80457344E+02</pdfrwt>
<pdfrwt beam="2">0</pdfrwt>
<totfact> 0.14910309E-02</totfact>
</mgrwt>
</event>
<event>
 4    1  0.8963905E-004  0.1436838E+03  0.7546771E-02  0.1104387E+00
         22   -1    0    0    0    0  0.00000000000E+00  0.00000000000E+00  0.10558968212E+02  0.10558968212E+02  0.00000000000E+00 0.  1.
         22   -1    0    0    0    0 -0.00000000000E+00 -0.00000000000E+00 -0.42779573841E+04  0.42779573841E+04  0.00000000000E+00 0. -1.
         24    1    1    2    0    0 -0.11642938605E+03 -0.24940250436E+02 -0.37137081281E+04  0.37164866601E+04  0.80419002446E+02 0. -1.
        -24    1    1    2    0    0  0.11642938605E+03  0.24940250436E+02 -0.55369028782E+03  0.57202969225E+03  0.80419002446E+02 0.  1.
<mgrwt>
<rscale>  0 0.14368380E+03</rscale>
<asrwt>0</asrwt>
<pdfrwt beam="1">  1       22 0.21117576E+00 0.14368380E+03</pdfrwt>
<pdfrwt beam="2">0</pdfrwt>
<totfact> 0.28441619E-04</totfact>
</mgrwt>
</event>
<event>
 4    1  0.8963905E-004  0.1031643E+03  0.7546771E-02  0.1158452E+00
         22   -1    0    0    0    0  0.00000000000E+00  0.00000000000E+00  0.24972645314E+02  0.24972645314E+02  0.00000000000E+00 0.  1.
         22   -1    0    0    0    0 -0.00000000000E+00 -0.00000000000E+00 -0.89783966759E+03  0.89783966759E+03  0.00000000000E+00 0.  1.
         24    1    1    2    0    0 -0.62164035506E+02  0.17643529043E+02 -0.77085771973E+03  0.77773035267E+03  0.80419002446E+02 0.  1.
        -24    1    1    2    0    0  0.62164035506E+02 -0.17643529043E+02 -0.10200930254E+03  0.14508196024E+03  0.80419002446E+02 0.  1.
<mgrwt>
<rscale>  0 0.10316432E+03</rscale>
<asrwt>0</asrwt>
<pdfrwt beam="1">  1       22 0.49945539E+00 0.10316432E+03</pdfrwt>
<pdfrwt beam="2">0</pdfrwt>
<totfact> 0.19538989E-02</totfact>
</mgrwt>
</event>
<event>
 4    1  0.8963905E-004  0.9924441E+02  0.7546771E-02  0.1165129E+00
         22   -1    0    0    0    0  0.00000000000E+00  0.00000000000E+00  0.38701228816E+02  0.38701228816E+02  0.00000000000E+00 0. -1.
         22   -1    0    0    0    0 -0.00000000000E+00 -0.00000000000E+00 -0.31474680118E+03  0.31474680118E+03  0.00000000000E+00 0. -1.
         24    1    1    2    0    0  0.26119852732E+02 -0.51961439569E+02 -0.21534116330E+03  0.23711024962E+03  0.80419002446E+02 0. -1.
        -24    1    1    2    0    0 -0.26119852732E+02  0.51961439569E+02 -0.60704409063E+02  0.11633778038E+03  0.80419002446E+02 0. -1.
<mgrwt>
<rscale>  0 0.99244415E+02</rscale>
<asrwt>0</asrwt>
<pdfrwt beam="1">  1       22 0.77402798E+00 0.99244415E+02</pdfrwt>
<pdfrwt beam="2">0</pdfrwt>
<totfact> 0.64543988E-02</totfact>
</mgrwt>
</event>
<event>
 4    1  0.8963905E-004  0.1567564E+03  0.7546771E-02  0.1091020E+00
         22   -1    0    0    0    0  0.00000000000E+00  0.00000000000E+00  0.14460463565E+02  0.14460463565E+02  0.00000000000E+00 0.  1.
         22   -1    0    0    0    0 -0.00000000000E+00 -0.00000000000E+00 -0.27087393294E+04  0.27087393294E+04  0.00000000000E+00 0.  1.
         24    1    1    2    0    0 -0.11927596107E+03  0.62278451560E+02 -0.21783428944E+04  0.21839758107E+04  0.80419002446E+02 0.  1.
        -24    1    1    2    0    0  0.11927596107E+03 -0.62278451560E+02 -0.51593597144E+03  0.53922398222E+03  0.80419002446E+02 0.  1.
<mgrwt>
<rscale>  0 0.15675642E+03</rscale>
<asrwt>0</asrwt>
<pdfrwt beam="1">  1       22 0.28922674E+00 0.15675642E+03</pdfrwt>
<pdfrwt beam="2">0</pdfrwt>
<totfact> 0.24414204E-03</totfact>
</mgrwt>
</event>
<event>
 4    1  0.8963905E-004  0.1170223E+03  0.7546771E-02  0.1137256E+00
         22   -1    0    0    0    0  0.00000000000E+00  0.00000000000E+00  0.11602547726E+02  0.11602547726E+02  0.00000000000E+00 0.  1.
         22   -1    0    0    0    0 -0.00000000000E+00 -0.00000000000E+00 -0.15918244933E+04  0.15918244933E+04  0.00000000000E+00 0.  1.
         24    1    1    2    0    0  0.43056852513E+02  0.73301575963E+02 -0.38246686151E+03  0.39996891091E+03  0.80419002446E+02 0.  1.
        -24    1    1    2    0    0 -0.43056852513E+02 -0.73301575963E+02 -0.11977550840E+04  0.12034581301E+04  0.80419002446E+02 0.  1.
<mgrwt>
<rscale>  0 0.11702235E+03</rscale>
<asrwt>0</asrwt>
<pdfrwt beam="1">  1       22 0.23200871E+00 0.11702235E+03</pdfrwt>
<pdfrwt beam="2">0</pdfrwt>
<totfact> 0.15933396E-02</totfact>
</mgrwt>
</event>
<event>
 4    1  0.8963905E-004  0.9942544E+02  0.7546771E-02  0.1164813E+00
         22   -1    0    0    0    0  0.00000000000E+00  0.00000000000E+00  0.31486405029E+02  0.31486405029E+02  0.00000000000E+00 0. -1.
         22   -1    0    0    0    0 -0.00000000000E+00 -0.00000000000E+00 -0.33572057967E+03  0.33572057967E+03  0.00000000000E+00 0. -1.
         24    1    1    2    0    0  0.27240876254E+02  0.51731394088E+02 -0.19886304652E+03  0.22233292536E+03  0.80419002446E+02 0. -1.
        -24    1    1    2    0    0 -0.27240876254E+02 -0.51731394088E+02 -0.10537112812E+03  0.14487405934E+03  0.80419002446E+02 0. -1.
<mgrwt>
<rscale>  0 0.99425442E+02</rscale>
<asrwt>0</asrwt>
<pdfrwt beam="1">  1       22 0.62972368E+00 0.99425442E+02</pdfrwt>
<pdfrwt beam="2">0</pdfrwt>
<totfact> 0.79796391E-02</totfact>
</mgrwt>
</event>
<event>
 4    1  0.8963905E-004  0.8299633E+02  0.7546771E-02  0.1196996E+00
         22   -1    0    0    0    0  0.00000000000E+00  0.00000000000E+00  0.17905493589E+02  0.17905493589E+02  0.00000000000E+00 0. -1.
         22   -1    0    0    0    0 -0.00000000000E+00 -0.00000000000E+00 -0.42742586330E+03  0.42742586330E+03  0.00000000000E+00 0. -1.
         24    1    1    2    0    0  0.14504025222E+02 -0.14519226074E+02 -0.27515270386E+03  0.28739763581E+03  0.80419002446E+02 0. -1.
        -24    1    1    2    0    0 -0.14504025222E+02  0.14519226074E+02 -0.13436766586E+03  0.15793372108E+03  0.80419002446E+02 0. -1.
<mgrwt>
<rscale>  0 0.82996329E+02</rscale>
<asrwt>0</asrwt>
<pdfrwt beam="1">  1       22 0.35810437E+00 0.82996329E+02</pdfrwt>
<pdfrwt beam="2">0</pdfrwt>
<totfact> 0.12261954E-01</totfact>
</mgrwt>
</event>
<event>
 4    1  0.8963905E-004  0.9630361E+02  0.7546771E-02  0.1170368E+00
         22   -1    0    0    0    0  0.00000000000E+00  0.00000000000E+00  0.95807009989E+01  0.95807009989E+01  0.00000000000E+00 0. -1.
         22   -1    0    0    0    0 -0.00000000000E+00 -0.00000000000E+00 -0.14466005578E+04  0.14466005578E+04  0.00000000000E+00 0. -1.
         24    1    1    2    0    0 -0.44989529689E+02  0.27984144782E+02 -0.11372890852E+04  0.11413592114E+04  0.80419002446E+02 0. -1.
        -24    1    1    2    0    0  0.44989529689E+02 -0.27984144782E+02 -0.29973077164E+03  0.31482204745E+03  0.80419002446E+02 0. -1.
<mgrwt>
<rscale>  0 0.96303614E+02</rscale>
<asrwt>0</asrwt>
<pdfrwt beam="1">  1       22 0.19162213E+00 0.96303614E+02</pdfrwt>
<pdfrwt beam="2">0</pdfrwt>
<totfact> 0.25448563E-02</totfact>
</mgrwt>
</event>
<event>
 4    1  0.8963905E-004  0.9986528E+02  0.7546771E-02  0.1164049E+00
         22   -1    0    0    0    0  0.00000000000E+00  0.00000000000E+00  0.40084405235E+02  0.40084405235E+02  0.00000000000E+00 0.  1.
         22   -1    0    0    0    0 -0.00000000000E+00 -0.00000000000E+00 -0.29622790306E+03  0.29622790306E+03  0.00000000000E+00 0.  1.
         24    1    1    2    0    0 -0.36331014856E+02  0.46753780755E+02 -0.60788302921E+02  0.11691147241E+03  0.80419002446E+02 0.  1.
        -24    1    1    2    0    0  0.36331014856E+02 -0.46753780755E+02 -0.19535519491E+03  0.21940083588E+03  0.80419002446E+02 0.  1.
<mgrwt>
<rscale>  0 0.99865282E+02</rscale>
<asrwt>0</asrwt>
<pdfrwt beam="1">  1       22 0.80168616E+00 0.99865282E+02</pdfrwt>
<pdfrwt beam="2">0</pdfrwt>
<totfact> 0.67361405E-02</totfact>
</mgrwt>
</event>
<event>
 4    1  0.8963905E-004  0.8517437E+02  0.7546771E-02  0.1192269E+00
         22   -1    0    0    0    0  0.00000000000E+00  0.00000000000E+00  0.37671994410E+02  0.37671994410E+02  0.00000000000E+00 0.  1.
         22   -1    0    0    0    0 -0.00000000000E+00 -0.00000000000E+00 -0.30546358644E+04  0.30546358644E+04  0.00000000000E+00 0. -1.
         24    1    1    2    0    0  0.13519417564E+02 -0.24590297977E+02 -0.11858780658E+02  0.85995953620E+02  0.80419002446E+02 0.  1.
        -24    1    1    2    0    0 -0.13519417564E+02  0.24590297977E+02 -0.30051050893E+04  0.30063119052E+04  0.80419002446E+02 0. -1.
<mgrwt>
<rscale>  0 0.85174370E+02</rscale>
<asrwt>0</asrwt>
<pdfrwt beam="1">  1       22 0.75343673E+00 0.85174370E+02</pdfrwt>
<pdfrwt beam="2">0</pdfrwt>
<totfact> 0.34575708E-04</totfact>
</mgrwt>
</event>
<event>
 4    1  0.8963905E-004  0.9673734E+02  0.7546771E-02  0.1169583E+00
         22   -1    0    0    0    0  0.00000000000E+00  0.00000000000E+00  0.20406659801E+02  0.20406659801E+02  0.00000000000E+00 0. -1.
         22   -1    0    0    0    0 -0.00000000000E+00 -0.00000000000E+00 -0.17690739592E+04  0.17690739592E+04  0.00000000000E+00 0.  1.
         24    1    1    2    0    0  0.30048014956E+02  0.44587148082E+02 -0.16444233272E+04  0.16472662784E+04  0.80419002446E+02 0.  1.
        -24    1    1    2    0    0 -0.30048014956E+02 -0.44587148082E+02 -0.10424397220E+03  0.14221434060E+03  0.80419002446E+02 0. -1.
<mgrwt>
<rscale>  0 0.96737340E+02</rscale>
<asrwt>0</asrwt>
<pdfrwt beam="1">  1       22 0.40812988E+00 0.96737340E+02</pdfrwt>
<pdfrwt beam="2">0</pdfrwt>
<totfact> 0.54829720E-03</totfact>
</mgrwt>
</event>
<event>
 4    1  0.8963905E-004  0.8576037E+02  0.7546771E-02  0.1191024E+00
         22   -1    0    0    0    0  0.00000000000E+00  0.00000000000E+00  0.20563932477E+02  0.20563932477E+02  0.00000000000E+00 0. -1.
         22   -1    0    0    0    0 -0.00000000000E+00 -0.00000000000E+00 -0.57361417596E+03  0.57361417596E+03  0.00000000000E+00 0. -1.
         24    1    1    2    0    0 -0.47385128027E+01 -0.29413790178E+02 -0.94236217528E+02  0.12741783707E+03  0.80419002446E+02 0. -1.
        -24    1    1    2    0    0  0.47385128027E+01  0.29413790178E+02 -0.45881402596E+03  0.46676027137E+03  0.80419002446E+02 0. -1.
<mgrwt>
<rscale>  0 0.85760367E+02</rscale>
<asrwt>0</asrwt>
<pdfrwt beam="1">  1       22 0.41128384E+00 0.85760367E+02</pdfrwt>
<pdfrwt beam="2">0</pdfrwt>
<totfact> 0.60449998E-02</totfact>
</mgrwt>
</event>
<event>
 4    1  0.8963905E-004  0.9402547E+02  0.7546771E-02  0.1174573E+00
         22   -1    0    0    0    0  0.00000000000E+00  0.00000000000E+00  0.35927500150E+02  0.35927500150E+02  0.00000000000E+00 0. -1.
         22   -1    0    0    0    0 -0.00000000000E+00 -0.00000000000E+00 -0.15668442611E+04  0.15668442611E+04  0.00000000000E+00 0. -1.
         24    1    1    2    0    0 -0.47460722770E+02 -0.11002360681E+02 -0.15012292247E+04  0.15041708590E+04  0.80419002446E+02 0. -1.
        -24    1    1    2    0    0  0.47460722770E+02  0.11002360681E+02 -0.29687536203E+02  0.98600902159E+02  0.80419002446E+02 0. -1.
<mgrwt>
<rscale>  0 0.94025465E+02</rscale>
<asrwt>0</asrwt>
<pdfrwt beam="1">  1       22 0.71853653E+00 0.94025465E+02</pdfrwt>
<pdfrwt beam="2">0</pdfrwt>
<totfact> 0.31864121E-03</totfact>
</mgrwt>
</event>
<event>
 4    1  0.8963905E-004  0.1967303E+03  0.7546771E-02  0.1057660E+00
         22   -1    0    0    0    0  0.00000000000E+00  0.00000000000E+00  0.13096848245E+02  0.13096848245E+02  0.00000000000E+00 0.  1.
         22   -1    0    0    0    0 -0.00000000000E+00 -0.00000000000E+00 -0.29818185906E+04  0.29818185906E+04  0.00000000000E+00 0.  1.
         24    1    1    2    0    0  0.17765809098E+03 -0.25945818442E+02 -0.13426729129E+04  0.13570089719E+04  0.80419002446E+02 0.  1.
        -24    1    1    2    0    0 -0.17765809098E+03  0.25945818442E+02 -0.16260488295E+04  0.16379064670E+04  0.80419002446E+02 0.  1.
<mgrwt>
<rscale>  0 0.19673027E+03</rscale>
<asrwt>0</asrwt>
<pdfrwt beam="1">  1       22 0.26198656E+00 0.19673027E+03</pdfrwt>
<pdfrwt beam="2">0</pdfrwt>
<totfact> 0.19227403E-03</totfact>
</mgrwt>
</event>
<event>
 4    1  0.8963905E-004  0.1263222E+03  0.7546771E-02  0.1124779E+00
         22   -1    0    0    0    0  0.00000000000E+00  0.00000000000E+00  0.15437260136E+02  0.15437260136E+02  0.00000000000E+00 0.  1.
         22   -1    0    0    0    0 -0.00000000000E+00 -0.00000000000E+00 -0.16608439553E+04  0.16608439553E+04  0.00000000000E+00 0.  1.
         24    1    1    2    0    0 -0.77757387024E+02 -0.58684536178E+02 -0.30766396917E+03  0.33258746204E+03  0.80419002446E+02 0.  1.
        -24    1    1    2    0    0  0.77757387024E+02  0.58684536178E+02 -0.13377427260E+04  0.13436937534E+04  0.80419002446E+02 0.  1.
<mgrwt>
<rscale>  0 0.12632221E+03</rscale>
<asrwt>0</asrwt>
<pdfrwt beam="1">  1       22 0.30874232E+00 0.12632221E+03</pdfrwt>
<pdfrwt beam="2">0</pdfrwt>
<totfact> 0.98072268E-03</totfact>
</mgrwt>
</event>
<event>
 4    1  0.8963905E-004  0.8609560E+02  0.7546771E-02  0.1190317E+00
         22   -1    0    0    0    0  0.00000000000E+00  0.00000000000E+00  0.35810904787E+02  0.35810904787E+02  0.00000000000E+00 0.  1.
         22   -1    0    0    0    0 -0.00000000000E+00 -0.00000000000E+00 -0.63281242318E+03  0.63281242318E+03  0.00000000000E+00 0. -1.
         24    1    1    2    0    0 -0.17444914371E+02 -0.25316226959E+02 -0.57273959810E+03  0.57917449838E+03  0.80419002446E+02 0. -1.
        -24    1    1    2    0    0  0.17444914371E+02  0.25316226959E+02 -0.24261920297E+02  0.89448829594E+02  0.80419002446E+02 0.  1.
<mgrwt>
<rscale>  0 0.86095600E+02</rscale>
<asrwt>0</asrwt>
<pdfrwt beam="1">  1       22 0.71622407E+00 0.86095600E+02</pdfrwt>
<pdfrwt beam="2">0</pdfrwt>
<totfact> 0.21878940E-02</totfact>
</mgrwt>
</event>
<event>
 4    1  0.8963905E-004  0.1186826E+03  0.7546771E-02  0.1134937E+00
         22   -1    0    0    0    0  0.00000000000E+00  0.00000000000E+00  0.15744150807E+02  0.15744150807E+02  0.00000000000E+00 0.  1.
         22   -1    0    0    0    0 -0.00000000000E+00 -0.00000000000E+00 -0.14479465346E+04  0.14479465346E+04  0.00000000000E+00 0.  1.
         24    1    1    2    0    0  0.87218920161E+02  0.33468163797E+01 -0.11684992303E+04  0.11745109656E+04  0.80419002446E+02 0.  1.
        -24    1    1    2    0    0 -0.87218920161E+02 -0.33468163797E+01 -0.26370315348E+03  0.28917971977E+03  0.80419002446E+02 0.  1.
<mgrwt>
<rscale>  0 0.11868259E+03</rscale>
<asrwt>0</asrwt>
<pdfrwt beam="1">  1       22 0.31486365E+00 0.11868259E+03</pdfrwt>
<pdfrwt beam="2">0</pdfrwt>
<totfact> 0.13367696E-02</totfact>
</mgrwt>
</event>
<event>
 4    1  0.8963905E-004  0.8364330E+02  0.7546771E-02  0.1195575E+00
         22   -1    0    0    0    0  0.00000000000E+00  0.00000000000E+00  0.21255484061E+02  0.21255484061E+02  0.00000000000E+00 0. -1.
         22   -1    0    0    0    0 -0.00000000000E+00 -0.00000000000E+00 -0.62098184786E+03  0.62098184786E+03  0.00000000000E+00 0. -1.
         24    1    1    2    0    0 -0.55305293915E+01  0.22324857437E+02 -0.52000059690E+03  0.52668474702E+03  0.80419002446E+02 0. -1.
        -24    1    1    2    0    0  0.55305293915E+01 -0.22324857437E+02 -0.79725766900E+02  0.11555258490E+03  0.80419002446E+02 0. -1.
<mgrwt>
<rscale>  0 0.83643302E+02</rscale>
<asrwt>0</asrwt>
<pdfrwt beam="1">  1       22 0.42508978E+00 0.83643302E+02</pdfrwt>
<pdfrwt beam="2">0</pdfrwt>
<totfact> 0.49760745E-02</totfact>
</mgrwt>
</event>
<event>
 4    1  0.8963905E-004  0.1128729E+03  0.7546771E-02  0.1143246E+00
         22   -1    0    0    0    0  0.00000000000E+00  0.00000000000E+00  0.14450293650E+02  0.14450293650E+02  0.00000000000E+00 0. -1.
         22   -1    0    0    0    0 -0.00000000000E+00 -0.00000000000E+00 -0.89720475673E+03  0.89720475673E+03  0.00000000000E+00 0. -1.
         24    1    1    2    0    0  0.60136018645E+02  0.51543539058E+02 -0.38138416208E+03  0.39773630988E+03  0.80419002446E+02 0. -1.
        -24    1    1    2    0    0 -0.60136018645E+02 -0.51543539058E+02 -0.50137030100E+03  0.51391874050E+03  0.80419002446E+02 0. -1.
<mgrwt>
<rscale>  0 0.11287291E+03</rscale>
<asrwt>0</asrwt>
<pdfrwt beam="1">  1       22 0.28900788E+00 0.11287291E+03</pdfrwt>
<pdfrwt beam="2">0</pdfrwt>
<totfact> 0.43188402E-02</totfact>
</mgrwt>
</event>
<event>
 4    1  0.8963905E-004  0.1136350E+03  0.7546771E-02  0.1142125E+00
         22   -1    0    0    0    0  0.00000000000E+00  0.00000000000E+00  0.27153933152E+02  0.27153933152E+02  0.00000000000E+00 0. -1.
         22   -1    0    0    0    0 -0.00000000000E+00 -0.00000000000E+00 -0.52676897369E+03  0.52676897369E+03  0.00000000000E+00 0. -1.
         24    1    1    2    0    0  0.31479564884E+02  0.73856140664E+02 -0.16344064208E+03  0.19906218113E+03  0.80419002446E+02 0. -1.
        -24    1    1    2    0    0 -0.31479564884E+02 -0.73856140664E+02 -0.33617439846E+03  0.35486072572E+03  0.80419002446E+02 0. -1.
<mgrwt>
<rscale>  0 0.11363498E+03</rscale>
<asrwt>0</asrwt>
<pdfrwt beam="1">  1       22 0.54308725E+00 0.11363498E+03</pdfrwt>
<pdfrwt beam="2">0</pdfrwt>
<totfact> 0.47569680E-02</totfact>
</mgrwt>
</event>
<event>
 4    1  0.8963905E-004  0.9777114E+02  0.7546771E-02  0.1167728E+00
         22   -1    0    0    0    0  0.00000000000E+00  0.00000000000E+00  0.26225231347E+02  0.26225231347E+02  0.00000000000E+00 0.  1.
         22   -1    0    0    0    0 -0.00000000000E+00 -0.00000000000E+00 -0.19532452666E+04  0.19532452666E+04  0.00000000000E+00 0. -1.
         24    1    1    2    0    0  0.30958902417E+02 -0.46190116488E+02 -0.70888682332E+02  0.12076589642E+03  0.80419002446E+02 0.  1.
        -24    1    1    2    0    0 -0.30958902417E+02  0.46190116488E+02 -0.18561313529E+04  0.18587046015E+04  0.80419002446E+02 0. -1.
<mgrwt>
<rscale>  0 0.97771143E+02</rscale>
<asrwt>0</asrwt>
<pdfrwt beam="1">  1       22 0.52449981E+00 0.97771143E+02</pdfrwt>
<pdfrwt beam="2">0</pdfrwt>
<totfact> 0.28818557E-03</totfact>
</mgrwt>
</event>
<event>
 4    1  0.8963905E-004  0.8286675E+02  0.7546771E-02  0.1197283E+00
         22   -1    0    0    0    0  0.00000000000E+00  0.00000000000E+00  0.25572304885E+01  0.25572304885E+01  0.00000000000E+00 0. -1.
         22   -1    0    0    0    0 -0.00000000000E+00 -0.00000000000E+00 -0.27414537462E+04  0.27414537462E+04  0.00000000000E+00 0. -1.
         24    1    1    2    0    0 -0.18165842993E+02 -0.83477641028E+01 -0.11730655570E+04  0.11759888180E+04  0.80419002446E+02 0. -1.
        -24    1    1    2    0    0  0.18165842993E+02  0.83477641028E+01 -0.15658309587E+04  0.15680221587E+04  0.80419002446E+02 0. -1.
<mgrwt>
<rscale>  0 0.82866754E+02</rscale>
<asrwt>0</asrwt>
<pdfrwt beam="1">  1       22 0.51148832E-01 0.82866754E+02</pdfrwt>
<pdfrwt beam="2">0</pdfrwt>
<totfact> 0.18171220E-02</totfact>
</mgrwt>
</event>
<event>
 4    1  0.8963905E-004  0.8285013E+02  0.7546771E-02  0.1197319E+00
         22   -1    0    0    0    0  0.00000000000E+00  0.00000000000E+00  0.23267738737E+01  0.23267738737E+01  0.00000000000E+00 0. -1.
         22   -1    0    0    0    0 -0.00000000000E+00 -0.00000000000E+00 -0.29789936196E+04  0.29789936196E+04  0.00000000000E+00 0. -1.
         24    1    1    2    0    0  0.14392611358E+02 -0.13776122059E+02 -0.16352171102E+04  0.16373146131E+04  0.80419002446E+02 0. -1.
        -24    1    1    2    0    0 -0.14392611358E+02  0.13776122059E+02 -0.13414497356E+04  0.13440057804E+04  0.80419002446E+02 0. -1.
<mgrwt>
<rscale>  0 0.82850134E+02</rscale>
<asrwt>0</asrwt>
<pdfrwt beam="1">  1       22 0.46488380E-01 0.82850134E+02</pdfrwt>
<pdfrwt beam="2">0</pdfrwt>
<totfact> 0.14334964E-02</totfact>
</mgrwt>
</event>
<event>
 4    1  0.8963905E-004  0.1726969E+03  0.7546771E-02  0.1076537E+00
         22   -1    0    0    0    0  0.00000000000E+00  0.00000000000E+00  0.28080308741E+02  0.28080308741E+02  0.00000000000E+00 0.  1.
         22   -1    0    0    0    0 -0.00000000000E+00 -0.00000000000E+00 -0.13909968354E+04  0.13909968354E+04  0.00000000000E+00 0.  1.
         24    1    1    2    0    0  0.15247807729E+03  0.10364477848E+02 -0.10264750945E+04  0.10409012067E+04  0.80419002446E+02 0.  1.
        -24    1    1    2    0    0 -0.15247807729E+03 -0.10364477848E+02 -0.33644143212E+03  0.37817593744E+03  0.80419002446E+02 0.  1.
<mgrwt>
<rscale>  0 0.17269685E+03</rscale>
<asrwt>0</asrwt>
<pdfrwt beam="1">  1       22 0.56161303E+00 0.17269685E+03</pdfrwt>
<pdfrwt beam="2">0</pdfrwt>
<totfact> 0.65242838E-03</totfact>
</mgrwt>
</event>
<event>
 4    1  0.8963905E-004  0.8304378E+02  0.7546771E-02  0.1196891E+00
         22   -1    0    0    0    0  0.00000000000E+00  0.00000000000E+00  0.17265407573E+02  0.17265407573E+02  0.00000000000E+00 0. -1.
         22   -1    0    0    0    0 -0.00000000000E+00 -0.00000000000E+00 -0.40525984650E+03  0.40525984650E+03  0.00000000000E+00 0.  1.
         24    1    1    2    0    0  0.16661330080E+02 -0.12306671737E+02 -0.21934243341E+03  0.23453650704E+03  0.80419002446E+02 0.  0.
        -24    1    1    2    0    0 -0.16661330080E+02  0.12306671737E+02 -0.16865200551E+03  0.18798874702E+03  0.80419002446E+02 0. -1.
<mgrwt>
<rscale>  0 0.83043784E+02</rscale>
<asrwt>0</asrwt>
<pdfrwt beam="1">  1       22 0.34530933E+00 0.83043784E+02</pdfrwt>
<pdfrwt beam="2">0</pdfrwt>
<totfact> 0.14110771E-01</totfact>
</mgrwt>
</event>
<event>
 4    1  0.8963905E-004  0.9817234E+02  0.7546771E-02  0.1167015E+00
         22   -1    0    0    0    0  0.00000000000E+00  0.00000000000E+00  0.11614357947E+02  0.11614357947E+02  0.00000000000E+00 0.  1.
         22   -1    0    0    0    0 -0.00000000000E+00 -0.00000000000E+00 -0.84461333269E+03  0.84461333269E+03  0.00000000000E+00 0.  1.
         24    1    1    2    0    0 -0.56286733860E+02 -0.15478577416E+01 -0.47316077331E+03  0.48323795963E+03  0.80419002446E+02 0.  1.
        -24    1    1    2    0    0  0.56286733860E+02  0.15478577416E+01 -0.35983820143E+03  0.37298973100E+03  0.80419002446E+02 0.  1.
<mgrwt>
<rscale>  0 0.98172339E+02</rscale>
<asrwt>0</asrwt>
<pdfrwt beam="1">  1       22 0.23231109E+00 0.98172339E+02</pdfrwt>
<pdfrwt beam="2">0</pdfrwt>
<totfact> 0.64622998E-02</totfact>
</mgrwt>
</event>
<event>
 4    1  0.8963905E-004  0.1332652E+03  0.7546771E-02  0.1116214E+00
         22   -1    0    0    0    0  0.00000000000E+00  0.00000000000E+00  0.35760590134E+02  0.35760590134E+02  0.00000000000E+00 0.  1.
         22   -1    0    0    0    0 -0.00000000000E+00 -0.00000000000E+00 -0.96369695056E+03  0.96369695056E+03  0.00000000000E+00 0.  1.
         24    1    1    2    0    0  0.67056783073E+02  0.82436632190E+02 -0.11606716124E+03  0.17672354783E+03  0.80419002446E+02 0.  1.
        -24    1    1    2    0    0 -0.67056783073E+02 -0.82436632190E+02 -0.81186919919E+03  0.82273399287E+03  0.80419002446E+02 0.  1.
<mgrwt>
<rscale>  0 0.13326525E+03</rscale>
<asrwt>0</asrwt>
<pdfrwt beam="1">  1       22 0.71523934E+00 0.13326525E+03</pdfrwt>
<pdfrwt beam="2">0</pdfrwt>
<totfact> 0.99860621E-03</totfact>
</mgrwt>
</event>
<event>
 4    1  0.8963905E-004  0.9363469E+02  0.7546771E-02  0.1175308E+00
         22   -1    0    0    0    0  0.00000000000E+00  0.00000000000E+00  0.26566292281E+02  0.26566292281E+02  0.00000000000E+00 0. -1.
         22   -1    0    0    0    0 -0.00000000000E+00 -0.00000000000E+00 -0.57291302483E+03  0.57291302483E+03  0.00000000000E+00 0.  1.
         24    1    1    2    0    0  0.30294869731E+01  0.47865026191E+02 -0.78006625092E+02  0.12187078418E+03  0.80419002446E+02 0. -1.
        -24    1    1    2    0    0 -0.30294869731E+01 -0.47865026191E+02 -0.46834010746E+03  0.47760853293E+03  0.80419002446E+02 0.  1.
<mgrwt>
<rscale>  0 0.93634686E+02</rscale>
<asrwt>0</asrwt>
<pdfrwt beam="1">  1       22 0.53133222E+00 0.93634686E+02</pdfrwt>
<pdfrwt beam="2">0</pdfrwt>
<totfact> 0.41676989E-02</totfact>
</mgrwt>
</event>
<event>
 4    1  0.8963905E-004  0.8180169E+02  0.7546771E-02  0.1199659E+00
         22   -1    0    0    0    0  0.00000000000E+00  0.00000000000E+00  0.12794456053E+02  0.12794456053E+02  0.00000000000E+00 0. -1.
         22   -1    0    0    0    0 -0.00000000000E+00 -0.00000000000E+00 -0.15841123504E+04  0.15841123504E+04  0.00000000000E+00 0.  1.
         24    1    1    2    0    0  0.11327755477E+02 -0.97970996353E+01 -0.14391460259E+04  0.14414689733E+04  0.80419002446E+02 0.  1.
        -24    1    1    2    0    0 -0.11327755477E+02  0.97970996353E+01 -0.13217186838E+03  0.15543783308E+03  0.80419002446E+02 0. -1.
<mgrwt>
<rscale>  0 0.81801694E+02</rscale>
<asrwt>0</asrwt>
<pdfrwt beam="1">  1       22 0.25591207E+00 0.81801694E+02</pdfrwt>
<pdfrwt beam="2">0</pdfrwt>
<totfact> 0.13792930E-02</totfact>
</mgrwt>
</event>
<event>
 4    1  0.8963905E-004  0.8772248E+02  0.7546771E-02  0.1186936E+00
         22   -1    0    0    0    0  0.00000000000E+00  0.00000000000E+00  0.16930355775E+02  0.16930355775E+02  0.00000000000E+00 0.  1.
         22   -1    0    0    0    0 -0.00000000000E+00 -0.00000000000E+00 -0.65402808824E+03  0.65402808824E+03  0.00000000000E+00 0.  1.
         24    1    1    2    0    0 -0.27213861431E+02 -0.22077674685E+02 -0.13326203465E+03  0.15954310956E+03  0.80419002446E+02 0.  0.
        -24    1    1    2    0    0  0.27213861431E+02  0.22077674685E+02 -0.50383569781E+03  0.51141533446E+03  0.80419002446E+02 0.  0.
<mgrwt>
<rscale>  0 0.87722482E+02</rscale>
<asrwt>0</asrwt>
<pdfrwt beam="1">  1       22 0.33861456E+00 0.87722482E+02</pdfrwt>
<pdfrwt beam="2">0</pdfrwt>
<totfact> 0.62929409E-02</totfact>
</mgrwt>
</event>
<event>
 4    1  0.8963905E-004  0.1247447E+03  0.7546771E-02  0.1126810E+00
         22   -1    0    0    0    0  0.00000000000E+00  0.00000000000E+00  0.43210757304E+02  0.43210757304E+02  0.00000000000E+00 0. -1.
         22   -1    0    0    0    0 -0.00000000000E+00 -0.00000000000E+00 -0.65370144040E+03  0.65370144040E+03  0.00000000000E+00 0.  1.
         24    1    1    2    0    0 -0.47769235757E+02  0.82535657327E+02 -0.71727885907E+02  0.14389628274E+03  0.80419002446E+02 0. -1.
        -24    1    1    2    0    0  0.47769235757E+02 -0.82535657327E+02 -0.53876279719E+03  0.55301591497E+03  0.80419002446E+02 0.  1.
<mgrwt>
<rscale>  0 0.12474474E+03</rscale>
<asrwt>0</asrwt>
<pdfrwt beam="1">  1       22 0.86421042E+00 0.12474474E+03</pdfrwt>
<pdfrwt beam="2">0</pdfrwt>
<totfact> 0.16013222E-02</totfact>
</mgrwt>
</event>
<event>
 4    1  0.8963905E-004  0.1023566E+03  0.7546771E-02  0.1159800E+00
         22   -1    0    0    0    0  0.00000000000E+00  0.00000000000E+00  0.39673489524E+02  0.39673489524E+02  0.00000000000E+00 0.  1.
         22   -1    0    0    0    0 -0.00000000000E+00 -0.00000000000E+00 -0.27550115939E+03  0.27550115939E+03  0.00000000000E+00 0.  1.
         24    1    1    2    0    0  0.59480744894E+02 -0.21718639833E+02 -0.85824332872E+02  0.13357653385E+03  0.80419002446E+02 0.  1.
        -24    1    1    2    0    0 -0.59480744894E+02  0.21718639833E+02 -0.15000333700E+03  0.18159811506E+03  0.80419002446E+02 0.  1.
<mgrwt>
<rscale>  0 0.10235660E+03</rscale>
<asrwt>0</asrwt>
<pdfrwt beam="1">  1       22 0.79347414E+00 0.10235660E+03</pdfrwt>
<pdfrwt beam="2">0</pdfrwt>
<totfact> 0.76730946E-02</totfact>
</mgrwt>
</event>
<event>
 4    1  0.8963905E-004  0.1748489E+03  0.7546771E-02  0.1074714E+00
         22   -1    0    0    0    0  0.00000000000E+00  0.00000000000E+00  0.30158430446E+02  0.30158430446E+02  0.00000000000E+00 0. -1.
         22   -1    0    0    0    0 -0.00000000000E+00 -0.00000000000E+00 -0.13306102690E+04  0.13306102690E+04  0.00000000000E+00 0.  1.
         24    1    1    2    0    0  0.15523796674E+03 -0.24694441191E+01 -0.98226161748E+03  0.99770237325E+03  0.80419002446E+02 0.  1.
        -24    1    1    2    0    0 -0.15523796674E+03  0.24694441191E+01 -0.31819022109E+03  0.36306632620E+03  0.80419002446E+02 0. -1.
<mgrwt>
<rscale>  0 0.17484891E+03</rscale>
<asrwt>0</asrwt>
<pdfrwt beam="1">  1       22 0.60316175E+00 0.17484891E+03</pdfrwt>
<pdfrwt beam="2">0</pdfrwt>
<totfact> 0.65036496E-03</totfact>
</mgrwt>
</event>
<event>
 4    1  0.8963905E-004  0.8073648E+02  0.7546771E-02  0.1202076E+00
         22   -1    0    0    0    0  0.00000000000E+00  0.00000000000E+00  0.36948357125E+02  0.36948357125E+02  0.00000000000E+00 0.  1.
         22   -1    0    0    0    0 -0.00000000000E+00 -0.00000000000E+00 -0.24964535679E+03  0.24964535679E+03  0.00000000000E+00 0. -1.
         24    1    1    2    0    0  0.71505919395E+01  0.18073965751E+00 -0.28739936207E+02  0.85699262071E+02  0.80419002446E+02 0.  1.
        -24    1    1    2    0    0 -0.71505919395E+01 -0.18073965751E+00 -0.18395706346E+03  0.20089445185E+03  0.80419002446E+02 0. -1.
<mgrwt>
<rscale>  0 0.80736482E+02</rscale>
<asrwt>0</asrwt>
<pdfrwt beam="1">  1       22 0.73896681E+00 0.80736482E+02</pdfrwt>
<pdfrwt beam="2">0</pdfrwt>
<totfact> 0.97315164E-02</totfact>
</mgrwt>
</event>
<event>
 4    1  0.8963905E-004  0.1110002E+03  0.7546771E-02  0.1146044E+00
         22   -1    0    0    0    0  0.00000000000E+00  0.00000000000E+00  0.46650651865E+02  0.46650651865E+02  0.00000000000E+00 0.  1.
         22   -1    0    0    0    0 -0.00000000000E+00 -0.00000000000E+00 -0.13206457185E+04  0.13206457185E+04  0.00000000000E+00 0. -1.
         24    1    1    2    0    0 -0.72646062674E+02 -0.24007786392E+02 -0.12484757521E+04  0.12534004723E+04  0.80419002446E+02 0. -1.
        -24    1    1    2    0    0  0.72646062674E+02  0.24007786392E+02 -0.25519314446E+02  0.11389589805E+03  0.80419002446E+02 0.  1.
<mgrwt>
<rscale>  0 0.11100018E+03</rscale>
<asrwt>0</asrwt>
<pdfrwt beam="1">  1       22 0.93302424E+00 0.11100018E+03</pdfrwt>
<pdfrwt beam="2">0</pdfrwt>
<totfact> 0.32644829E-03</totfact>
</mgrwt>
</event>
<event>
 4    1  0.8963905E-004  0.8205829E+02  0.7546771E-02  0.1199083E+00
         22   -1    0    0    0    0  0.00000000000E+00  0.00000000000E+00  0.62509902034E+01  0.62509902034E+01  0.00000000000E+00 0.  1.
         22   -1    0    0    0    0 -0.00000000000E+00 -0.00000000000E+00 -0.14948161739E+04  0.14948161739E+04  0.00000000000E+00 0. -1.
         24    1    1    2    0    0 -0.11169907484E+02  0.11898735877E+02 -0.11409853484E+04  0.11439323091E+04  0.80419002446E+02 0. -1.
        -24    1    1    2    0    0  0.11169907484E+02 -0.11898735877E+02 -0.34757983533E+03  0.35713485497E+03  0.80419002446E+02 0.  0.
<mgrwt>
<rscale>  0 0.82058288E+02</rscale>
<asrwt>0</asrwt>
<pdfrwt beam="1">  1       22 0.12500757E+00 0.82058288E+02</pdfrwt>
<pdfrwt beam="2">0</pdfrwt>
<totfact> 0.39323288E-02</totfact>
</mgrwt>
</event>
<event>
 4    1  0.8963905E-004  0.1847794E+03  0.7546771E-02  0.1066655E+00
         22   -1    0    0    0    0  0.00000000000E+00  0.00000000000E+00  0.47849286739E+02  0.47849286739E+02  0.00000000000E+00 0.  1.
         22   -1    0    0    0    0 -0.00000000000E+00 -0.00000000000E+00 -0.11358586590E+04  0.11358586590E+04  0.00000000000E+00 0. -1.
         24    1    1    2    0    0  0.37135506315E+02 -0.16216406023E+03 -0.18312609375E+03  0.26015112997E+03  0.80419002446E+02 0.  1.
        -24    1    1    2    0    0 -0.37135506315E+02  0.16216406023E+03 -0.90488327849E+03  0.92355681574E+03  0.80419002446E+02 0. -1.
<mgrwt>
<rscale>  0 0.18477945E+03</rscale>
<asrwt>0</asrwt>
<pdfrwt beam="1">  1       22 0.95697448E+00 0.18477945E+03</pdfrwt>
<pdfrwt beam="2">0</pdfrwt>
<totfact> 0.45818650E-03</totfact>
</mgrwt>
</event>
<event>
 4    1  0.8963905E-004  0.9717234E+02  0.7546771E-02  0.1168799E+00
         22   -1    0    0    0    0  0.00000000000E+00  0.00000000000E+00  0.41451101832E+02  0.41451101832E+02  0.00000000000E+00 0. -1.
         22   -1    0    0    0    0 -0.00000000000E+00 -0.00000000000E+00 -0.31702011582E+03  0.31702011582E+03  0.00000000000E+00 0.  1.
         24    1    1    2    0    0 -0.69491061361E+01  0.54101372977E+02 -0.23287080454E+03  0.25233167894E+03  0.80419002446E+02 0.  0.
        -24    1    1    2    0    0  0.69491061361E+01 -0.54101372977E+02 -0.42698209448E+02  0.10613953871E+03  0.80419002446E+02 0. -1.
<mgrwt>
<rscale>  0 0.97172345E+02</rscale>
<asrwt>0</asrwt>
<pdfrwt beam="1">  1       22 0.82902554E+00 0.97172345E+02</pdfrwt>
<pdfrwt beam="2">0</pdfrwt>
<totfact> 0.57426625E-02</totfact>
</mgrwt>
</event>
<event>
 4    1  0.8963905E-004  0.1258528E+03  0.7546771E-02  0.1125380E+00
         22   -1    0    0    0    0  0.00000000000E+00  0.00000000000E+00  0.31829331274E+02  0.31829331274E+02  0.00000000000E+00 0.  1.
         22   -1    0    0    0    0 -0.00000000000E+00 -0.00000000000E+00 -0.66979108477E+03  0.66979108477E+03  0.00000000000E+00 0. -1.
         24    1    1    2    0    0  0.14963225815E+02  0.95644241478E+02 -0.14111946701E+03  0.18908632679E+03  0.80419002446E+02 0.  1.
        -24    1    1    2    0    0 -0.14963225815E+02 -0.95644241478E+02 -0.49684228648E+03  0.51253408925E+03  0.80419002446E+02 0. -1.
<mgrwt>
<rscale>  0 0.12585283E+03</rscale>
<asrwt>0</asrwt>
<pdfrwt beam="1">  1       22 0.63657996E+00 0.12585283E+03</pdfrwt>
<pdfrwt beam="2">0</pdfrwt>
<totfact> 0.24344211E-02</totfact>
</mgrwt>
</event>
<event>
 4    1  0.8963905E-004  0.1086038E+03  0.7546771E-02  0.1149714E+00
         22   -1    0    0    0    0  0.00000000000E+00  0.00000000000E+00  0.21486100912E+02  0.21486100912E+02  0.00000000000E+00 0.  1.
         22   -1    0    0    0    0 -0.00000000000E+00 -0.00000000000E+00 -0.14603786397E+04  0.14603786397E+04  0.00000000000E+00 0.  1.
         24    1    1    2    0    0  0.72879929242E+02  0.40095447711E+01 -0.13047851528E+04  0.13092971670E+04  0.80419002446E+02 0.  1.
        -24    1    1    2    0    0 -0.72879929242E+02 -0.40095447711E+01 -0.13410738594E+03  0.17256757359E+03  0.80419002446E+02 0.  1.
<mgrwt>
<rscale>  0 0.10860376E+03</rscale>
<asrwt>0</asrwt>
<pdfrwt beam="1">  1       22 0.42972993E+00 0.10860376E+03</pdfrwt>
<pdfrwt beam="2">0</pdfrwt>
<totfact> 0.83474171E-03</totfact>
</mgrwt>
</event>
<event>
 4    1  0.8963905E-004  0.1217339E+03  0.7546771E-02  0.1130781E+00
         22   -1    0    0    0    0  0.00000000000E+00  0.00000000000E+00  0.13693201907E+02  0.13693201907E+02  0.00000000000E+00 0.  1.
         22   -1    0    0    0    0 -0.00000000000E+00 -0.00000000000E+00 -0.13721428619E+04  0.13721428619E+04  0.00000000000E+00 0.  1.
         24    1    1    2    0    0  0.54001178555E+02 -0.73727883505E+02 -0.99773159890E+03  0.10051305823E+04  0.80419002446E+02 0.  1.
        -24    1    1    2    0    0 -0.54001178555E+02  0.73727883505E+02 -0.36071806110E+03  0.38070548151E+03  0.80419002446E+02 0.  1.
<mgrwt>
<rscale>  0 0.12173391E+03</rscale>
<asrwt>0</asrwt>
<pdfrwt beam="1">  1       22 0.27387397E+00 0.12173391E+03</pdfrwt>
<pdfrwt beam="2">0</pdfrwt>
<totfact> 0.18428395E-02</totfact>
</mgrwt>
</event>
<event>
 4    1  0.8963905E-004  0.8480629E+02  0.7546771E-02  0.1193057E+00
         22   -1    0    0    0    0  0.00000000000E+00  0.00000000000E+00  0.92307625317E+01  0.92307625317E+01  0.00000000000E+00 0.  1.
         22   -1    0    0    0    0 -0.00000000000E+00 -0.00000000000E+00 -0.10945539107E+04  0.10945539107E+04  0.00000000000E+00 0. -1.
         24    1    1    2    0    0 -0.56929843166E+01  0.26315042404E+02 -0.83892114587E+03  0.84319677209E+03  0.80419002446E+02 0. -1.
        -24    1    1    2    0    0  0.56929843166E+01 -0.26315042404E+02 -0.24640200225E+03  0.26058790109E+03  0.80419002446E+02 0.  1.
<mgrwt>
<rscale>  0 0.84806294E+02</rscale>
<asrwt>0</asrwt>
<pdfrwt beam="1">  1       22 0.18460020E+00 0.84806294E+02</pdfrwt>
<pdfrwt beam="2">0</pdfrwt>
<totfact> 0.50007404E-02</totfact>
</mgrwt>
</event>
<event>
 4    1  0.8963905E-004  0.1075163E+03  0.7546771E-02  0.1151415E+00
         22   -1    0    0    0    0  0.00000000000E+00  0.00000000000E+00  0.65682432457E+01  0.65682432457E+01  0.00000000000E+00 0.  1.
         22   -1    0    0    0    0 -0.00000000000E+00 -0.00000000000E+00 -0.19114898996E+04  0.19114898996E+04  0.00000000000E+00 0.  1.
         24    1    1    2    0    0  0.63990788516E+02 -0.31586632856E+02 -0.12224928288E+04  0.12272116642E+04  0.80419002446E+02 0.  1.
        -24    1    1    2    0    0 -0.63990788516E+02  0.31586632856E+02 -0.68242882757E+03  0.69084647864E+03  0.80419002446E+02 0.  1.
<mgrwt>
<rscale>  0 0.10751629E+03</rscale>
<asrwt>0</asrwt>
<pdfrwt beam="1">  1       22 0.13134795E+00 0.10751629E+03</pdfrwt>
<pdfrwt beam="2">0</pdfrwt>
<totfact> 0.19920914E-02</totfact>
</mgrwt>
</event>
<event>
 4    1  0.8963905E-004  0.1387938E+03  0.7546771E-02  0.1109795E+00
         22   -1    0    0    0    0  0.00000000000E+00  0.00000000000E+00  0.39679100847E+02  0.39679100847E+02  0.00000000000E+00 0. -1.
         22   -1    0    0    0    0 -0.00000000000E+00 -0.00000000000E+00 -0.53616369778E+03  0.53616369778E+03  0.00000000000E+00 0. -1.
         24    1    1    2    0    0 -0.10095866813E+03  0.51027880152E+02 -0.33675928831E+03  0.36423966209E+03  0.80419002446E+02 0. -1.
        -24    1    1    2    0    0  0.10095866813E+03 -0.51027880152E+02 -0.15972530863E+03  0.21160313654E+03  0.80419002446E+02 0. -1.
<mgrwt>
<rscale>  0 0.13879378E+03</rscale>
<asrwt>0</asrwt>
<pdfrwt beam="1">  1       22 0.79358313E+00 0.13879378E+03</pdfrwt>
<pdfrwt beam="2">0</pdfrwt>
<totfact> 0.26328079E-02</totfact>
</mgrwt>
</event>
<event>
 4    1  0.8963905E-004  0.1258396E+03  0.7546771E-02  0.1125397E+00
         22   -1    0    0    0    0  0.00000000000E+00  0.00000000000E+00  0.30894482175E+02  0.30894482175E+02  0.00000000000E+00 0.  1.
         22   -1    0    0    0    0 -0.00000000000E+00 -0.00000000000E+00 -0.52645174877E+03  0.52645174877E+03  0.00000000000E+00 0.  1.
         24    1    1    2    0    0 -0.26033170576E+02  0.93223671370E+02 -0.29303011070E+03  0.31890788734E+03  0.80419002446E+02 0.  1.
        -24    1    1    2    0    0  0.26033170576E+02 -0.93223671370E+02 -0.20252715590E+03  0.23843834361E+03  0.80419002446E+02 0.  1.
<mgrwt>
<rscale>  0 0.12583956E+03</rscale>
<asrwt>0</asrwt>
<pdfrwt beam="1">  1       22 0.61789786E+00 0.12583956E+03</pdfrwt>
<pdfrwt beam="2">0</pdfrwt>
<totfact> 0.39446469E-02</totfact>
</mgrwt>
</event>
<event>
 4    1  0.8963905E-004  0.8850737E+02  0.7546771E-02  0.1185334E+00
         22   -1    0    0    0    0  0.00000000000E+00  0.00000000000E+00  0.11787478379E+02  0.11787478379E+02  0.00000000000E+00 0.  1.
         22   -1    0    0    0    0 -0.00000000000E+00 -0.00000000000E+00 -0.68928491722E+03  0.68928491722E+03  0.00000000000E+00 0. -1.
         24    1    1    2    0    0 -0.18984778084E+02 -0.31716197452E+02 -0.40513067013E+03  0.41468592310E+03  0.80419002446E+02 0. -1.
        -24    1    1    2    0    0  0.18984778084E+02  0.31716197452E+02 -0.27236676870E+03  0.28638647250E+03  0.80419002446E+02 0.  1.
<mgrwt>
<rscale>  0 0.88507372E+02</rscale>
<asrwt>0</asrwt>
<pdfrwt beam="1">  1       22 0.23575616E+00 0.88507372E+02</pdfrwt>
<pdfrwt beam="2">0</pdfrwt>
<totfact> 0.93318718E-02</totfact>
</mgrwt>
</event>
<event>
 4    1  0.8963905E-004  0.1036680E+03  0.7546771E-02  0.1157618E+00
         22   -1    0    0    0    0  0.00000000000E+00  0.00000000000E+00  0.82696262310E+01  0.82696262310E+01  0.00000000000E+00 0.  1.
         22   -1    0    0    0    0 -0.00000000000E+00 -0.00000000000E+00 -0.17189625839E+04  0.17189625839E+04  0.00000000000E+00 0. -1.
         24    1    1    2    0    0 -0.44817484176E+02 -0.47657449837E+02 -0.12819179511E+04  0.12861029075E+04  0.80419002446E+02 0. -1.
        -24    1    1    2    0    0  0.44817484176E+02  0.47657449837E+02 -0.42877500654E+03  0.44112930259E+03  0.80419002446E+02 0.  1.
<mgrwt>
<rscale>  0 0.10366801E+03</rscale>
<asrwt>0</asrwt>
<pdfrwt beam="1">  1       22 0.16540646E+00 0.10366801E+03</pdfrwt>
<pdfrwt beam="2">0</pdfrwt>
<totfact> 0.19962038E-02</totfact>
</mgrwt>
</event>
<event>
 4    1  0.8963905E-004  0.1483185E+03  0.7546771E-02  0.1099475E+00
         22   -1    0    0    0    0  0.00000000000E+00  0.00000000000E+00  0.31642938249E+02  0.31642938249E+02  0.00000000000E+00 0. -1.
         22   -1    0    0    0    0 -0.00000000000E+00 -0.00000000000E+00 -0.72160235951E+03  0.72160235951E+03  0.00000000000E+00 0.  1.
         24    1    1    2    0    0 -0.66899152712E+00 -0.12462224422E+03 -0.27294733648E+03  0.31064226330E+03  0.80419002446E+02 0.  0.
        -24    1    1    2    0    0  0.66899152712E+00  0.12462224422E+03 -0.41701208478E+03  0.44260303446E+03  0.80419002446E+02 0.  0.
<mgrwt>
<rscale>  0 0.14831847E+03</rscale>
<asrwt>0</asrwt>
<pdfrwt beam="1">  1       22 0.63285517E+00 0.14831847E+03</pdfrwt>
<pdfrwt beam="2">0</pdfrwt>
<totfact> 0.21624439E-02</totfact>
</mgrwt>
</event>
<event>
 4    1  0.8963905E-004  0.1031678E+03  0.7546771E-02  0.1158446E+00
         22   -1    0    0    0    0  0.00000000000E+00  0.00000000000E+00  0.36896321879E+02  0.36896321879E+02  0.00000000000E+00 0. -1.
         22   -1    0    0    0    0 -0.00000000000E+00 -0.00000000000E+00 -0.31053173923E+03  0.31053173923E+03  0.00000000000E+00 0. -1.
         24    1    1    2    0    0  0.37962248617E+02 -0.52299647503E+02 -0.90518889991E+02  0.13724893751E+03  0.80419002446E+02 0. -1.
        -24    1    1    2    0    0 -0.37962248617E+02  0.52299647503E+02 -0.18311652736E+03  0.21017912360E+03  0.80419002446E+02 0. -1.
<mgrwt>
<rscale>  0 0.10316783E+03</rscale>
<asrwt>0</asrwt>
<pdfrwt beam="1">  1       22 0.73793115E+00 0.10316783E+03</pdfrwt>
<pdfrwt beam="2">0</pdfrwt>
<totfact> 0.71113985E-02</totfact>
</mgrwt>
</event>
<event>
 4    1  0.8963905E-004  0.1108512E+03  0.7546771E-02  0.1146269E+00
         22   -1    0    0    0    0  0.00000000000E+00  0.00000000000E+00  0.20282182394E+02  0.20282182394E+02  0.00000000000E+00 0.  1.
         22   -1    0    0    0    0 -0.00000000000E+00 -0.00000000000E+00 -0.14672220631E+04  0.14672220631E+04  0.00000000000E+00 0.  1.
         24    1    1    2    0    0  0.72803563191E+02 -0.22812716069E+02 -0.15360064853E+03  0.18942321403E+03  0.80419002446E+02 0.  1.
        -24    1    1    2    0    0 -0.72803563191E+02  0.22812716069E+02 -0.12933392321E+04  0.12980810314E+04  0.80419002446E+02 0.  1.
<mgrwt>
<rscale>  0 0.11085123E+03</rscale>
<asrwt>0</asrwt>
<pdfrwt beam="1">  1       22 0.40564377E+00 0.11085123E+03</pdfrwt>
<pdfrwt beam="2">0</pdfrwt>
<totfact> 0.89927509E-03</totfact>
</mgrwt>
</event>
<event>
 4    1  0.8963905E-004  0.9805105E+02  0.7546771E-02  0.1167230E+00
         22   -1    0    0    0    0  0.00000000000E+00  0.00000000000E+00  0.91694041879E+01  0.91694041879E+01  0.00000000000E+00 0. -1.
         22   -1    0    0    0    0 -0.00000000000E+00 -0.00000000000E+00 -0.12722476828E+04  0.12722476828E+04  0.00000000000E+00 0.  1.
         24    1    1    2    0    0 -0.33700345896E+02  0.44845048241E+02 -0.36284024524E+03  0.37585509334E+03  0.80419002446E+02 0. -1.
        -24    1    1    2    0    0  0.33700345896E+02 -0.44845048241E+02 -0.90023803332E+03  0.90556199360E+03  0.80419002446E+02 0.  1.
<mgrwt>
<rscale>  0 0.98051046E+02</rscale>
<asrwt>0</asrwt>
<pdfrwt beam="1">  1       22 0.18340277E+00 0.98051046E+02</pdfrwt>
<pdfrwt beam="2">0</pdfrwt>
<totfact> 0.36445227E-02</totfact>
</mgrwt>
</event>
<event>
 4    1  0.8963905E-004  0.8755077E+02  0.7546771E-02  0.1187289E+00
         22   -1    0    0    0    0  0.00000000000E+00  0.00000000000E+00  0.36005653504E+02  0.36005653504E+02  0.00000000000E+00 0.  1.
         22   -1    0    0    0    0 -0.00000000000E+00 -0.00000000000E+00 -0.56518233202E+03  0.56518233202E+03  0.00000000000E+00 0.  1.
         24    1    1    2    0    0  0.20861949308E+02 -0.27617030737E+02 -0.50191111743E+03  0.50948984982E+03  0.80419002446E+02 0.  1.
        -24    1    1    2    0    0 -0.20861949308E+02  0.27617030737E+02 -0.27265561084E+02  0.91698135702E+02  0.80419002446E+02 0.  1.
<mgrwt>
<rscale>  0 0.87550770E+02</rscale>
<asrwt>0</asrwt>
<pdfrwt beam="1">  1       22 0.72011065E+00 0.87550770E+02</pdfrwt>
<pdfrwt beam="2">0</pdfrwt>
<totfact> 0.26686819E-02</totfact>
</mgrwt>
</event>
<event>
 4    1  0.8963905E-004  0.9604557E+02  0.7546771E-02  0.1170838E+00
         22   -1    0    0    0    0  0.00000000000E+00  0.00000000000E+00  0.23544026764E+02  0.23544026764E+02  0.00000000000E+00 0.  1.
         22   -1    0    0    0    0 -0.00000000000E+00 -0.00000000000E+00 -0.22007576052E+04  0.22007576052E+04  0.00000000000E+00 0. -1.
         24    1    1    2    0    0 -0.49910270534E+02 -0.16324815726E+02 -0.20969090684E+04  0.20991075227E+04  0.80419002446E+02 0. -1.
        -24    1    1    2    0    0  0.49910270534E+02  0.16324815726E+02 -0.80304510060E+02  0.12519410930E+03  0.80419002446E+02 0.  0.
<mgrwt>
<rscale>  0 0.96045566E+02</rscale>
<asrwt>0</asrwt>
<pdfrwt beam="1">  1       22 0.47087811E+00 0.96045566E+02</pdfrwt>
<pdfrwt beam="2">0</pdfrwt>
<totfact> 0.23804008E-03</totfact>
</mgrwt>
</event>
<event>
 4    1  0.8963905E-004  0.1023928E+03  0.7546771E-02  0.1159739E+00
         22   -1    0    0    0    0  0.00000000000E+00  0.00000000000E+00  0.38015284198E+02  0.38015284198E+02  0.00000000000E+00 0.  1.
         22   -1    0    0    0    0 -0.00000000000E+00 -0.00000000000E+00 -0.27668477026E+03  0.27668477026E+03  0.00000000000E+00 0. -1.
         24    1    1    2    0    0  0.52982511558E+02 -0.34784030745E+02 -0.12827544967E+03  0.16413068656E+03  0.80419002446E+02 0.  1.
        -24    1    1    2    0    0 -0.52982511558E+02  0.34784030745E+02 -0.11039403638E+03  0.15056936790E+03  0.80419002446E+02 0.  0.
<mgrwt>
<rscale>  0 0.10239283E+03</rscale>
<asrwt>0</asrwt>
<pdfrwt beam="1">  1       22 0.76029996E+00 0.10239283E+03</pdfrwt>
<pdfrwt beam="2">0</pdfrwt>
<totfact> 0.81305645E-02</totfact>
</mgrwt>
</event>
<event>
 4    1  0.8963905E-004  0.8065540E+02  0.7546771E-02  0.1202262E+00
         22   -1    0    0    0    0  0.00000000000E+00  0.00000000000E+00  0.53436648607E+01  0.53436648607E+01  0.00000000000E+00 0.  1.
         22   -1    0    0    0    0 -0.00000000000E+00 -0.00000000000E+00 -0.30491989852E+04  0.30491989852E+04  0.00000000000E+00 0. -1.
         24    1    1    2    0    0 -0.57248323678E+01  0.23030216216E+01 -0.33816650186E+03  0.34765194743E+03  0.80419002446E+02 0.  1.
        -24    1    1    2    0    0  0.57248323678E+01 -0.23030216216E+01 -0.27056888185E+04  0.27068907027E+04  0.80419002446E+02 0. -1.
<mgrwt>
<rscale>  0 0.80655400E+02</rscale>
<asrwt>0</asrwt>
<pdfrwt beam="1">  1       22 0.10682876E+00 0.80655400E+02</pdfrwt>
<pdfrwt beam="2">0</pdfrwt>
<totfact> 0.49908462E-03</totfact>
</mgrwt>
</event>
<event>
 4    1  0.8963905E-004  0.8818842E+02  0.7546771E-02  0.1185983E+00
         22   -1    0    0    0    0  0.00000000000E+00  0.00000000000E+00  0.43949755025E+02  0.43949755025E+02  0.00000000000E+00 0. -1.
         22   -1    0    0    0    0 -0.00000000000E+00 -0.00000000000E+00 -0.30132880687E+03  0.30132880687E+03  0.00000000000E+00 0. -1.
         24    1    1    2    0    0  0.30871595064E+01  0.36061773565E+02 -0.23960215767E+03  0.25531625875E+03  0.80419002446E+02 0. -1.
        -24    1    1    2    0    0 -0.30871595064E+01 -0.36061773565E+02 -0.17776894174E+02  0.89962303146E+02  0.80419002446E+02 0. -1.
<mgrwt>
<rscale>  0 0.88188423E+02</rscale>
<asrwt>0</asrwt>
<pdfrwt beam="1">  1       22 0.87900027E+00 0.88188423E+02</pdfrwt>
<pdfrwt beam="2">0</pdfrwt>
<totfact> 0.56391243E-02</totfact>
</mgrwt>
</event>
<event>
 4    1  0.8963905E-004  0.9527360E+02  0.7546771E-02  0.1172253E+00
         22   -1    0    0    0    0  0.00000000000E+00  0.00000000000E+00  0.11774134759E+02  0.11774134759E+02  0.00000000000E+00 0.  1.
         22   -1    0    0    0    0 -0.00000000000E+00 -0.00000000000E+00 -0.77440280362E+03  0.77440280362E+03  0.00000000000E+00 0. -1.
         24    1    1    2    0    0 -0.45071302531E+02  0.24050387647E+02 -0.40762976131E+03  0.41861567305E+03  0.80419002446E+02 0. -1.
        -24    1    1    2    0    0  0.45071302531E+02 -0.24050387647E+02 -0.35499890755E+03  0.36756126534E+03  0.80419002446E+02 0.  1.
<mgrwt>
<rscale>  0 0.95273603E+02</rscale>
<asrwt>0</asrwt>
<pdfrwt beam="1">  1       22 0.23549271E+00 0.95273603E+02</pdfrwt>
<pdfrwt beam="2">0</pdfrwt>
<totfact> 0.75172701E-02</totfact>
</mgrwt>
</event>
<event>
 4    1  0.8963905E-004  0.1495078E+03  0.7546771E-02  0.1098246E+00
         22   -1    0    0    0    0  0.00000000000E+00  0.00000000000E+00  0.21219014186E+02  0.21219014186E+02  0.00000000000E+00 0. -1.
         22   -1    0    0    0    0 -0.00000000000E+00 -0.00000000000E+00 -0.15362053151E+04  0.15362053151E+04  0.00000000000E+00 0. -1.
         24    1    1    2    0    0  0.12227436508E+03 -0.30567061694E+02 -0.11940374719E+04  0.12033611535E+04  0.80419002446E+02 0. -1.
        -24    1    1    2    0    0 -0.12227436508E+03  0.30567061694E+02 -0.32094882907E+03  0.35406317580E+03  0.80419002446E+02 0. -1.
<mgrwt>
<rscale>  0 0.14950780E+03</rscale>
<asrwt>0</asrwt>
<pdfrwt beam="1">  1       22 0.42436281E+00 0.14950780E+03</pdfrwt>
<pdfrwt beam="2">0</pdfrwt>
<totfact> 0.77025383E-03</totfact>
</mgrwt>
</event>
<event>
 4    1  0.8963905E-004  0.1196455E+03  0.7546771E-02  0.1133610E+00
         22   -1    0    0    0    0  0.00000000000E+00  0.00000000000E+00  0.18170369704E+02  0.18170369704E+02  0.00000000000E+00 0.  1.
         22   -1    0    0    0    0 -0.00000000000E+00 -0.00000000000E+00 -0.79544277372E+03  0.79544277372E+03  0.00000000000E+00 0.  1.
         24    1    1    2    0    0 -0.15826829678E+02 -0.87162692794E+02 -0.42845129424E+03  0.44484328819E+03  0.80419002446E+02 0.  1.
        -24    1    1    2    0    0  0.15826829678E+02  0.87162692794E+02 -0.34882110977E+03  0.36876985524E+03  0.80419002446E+02 0.  1.
<mgrwt>
<rscale>  0 0.11964547E+03</rscale>
<asrwt>0</asrwt>
<pdfrwt beam="1">  1       22 0.36341498E+00 0.11964547E+03</pdfrwt>
<pdfrwt beam="2">0</pdfrwt>
<totfact> 0.40142550E-02</totfact>
</mgrwt>
</event>
<event>
 4    1  0.8963905E-004  0.1279044E+03  0.7546771E-02  0.1122774E+00
         22   -1    0    0    0    0  0.00000000000E+00  0.00000000000E+00  0.38992676831E+02  0.38992676831E+02  0.00000000000E+00 0.  1.
         22   -1    0    0    0    0 -0.00000000000E+00 -0.00000000000E+00 -0.42556506269E+03  0.42556506269E+03  0.00000000000E+00 0.  1.
         24    1    1    2    0    0 -0.99420402824E+02 -0.28123804947E+01 -0.16568075976E+03  0.20930756339E+03  0.80419002446E+02 0.  1.
        -24    1    1    2    0    0  0.99420402824E+02  0.28123804947E+01 -0.22089162610E+03  0.25525017614E+03  0.80419002446E+02 0.  1.
<mgrwt>
<rscale>  0 0.12790443E+03</rscale>
<asrwt>0</asrwt>
<pdfrwt beam="1">  1       22 0.77987179E+00 0.12790443E+03</pdfrwt>
<pdfrwt beam="2">0</pdfrwt>
<totfact> 0.39946977E-02</totfact>
</mgrwt>
</event>
<event>
 4    1  0.8963905E-004  0.8616897E+02  0.7546771E-02  0.1190163E+00
         22   -1    0    0    0    0  0.00000000000E+00  0.00000000000E+00  0.45295230727E+02  0.45295230727E+02  0.00000000000E+00 0.  1.
         22   -1    0    0    0    0 -0.00000000000E+00 -0.00000000000E+00 -0.35833881780E+03  0.35833881780E+03  0.00000000000E+00 0.  1.
         24    1    1    2    0    0 -0.14839128714E+02  0.27160172378E+02 -0.30517446187E+03  0.31710651655E+03  0.80419002446E+02 0.  1.
        -24    1    1    2    0    0  0.14839128714E+02 -0.27160172378E+02 -0.78691252018E+01  0.86527531979E+02  0.80419002446E+02 0.  1.
<mgrwt>
<rscale>  0 0.86168966E+02</rscale>
<asrwt>0</asrwt>
<pdfrwt beam="1">  1       22 0.90591656E+00 0.86168966E+02</pdfrwt>
<pdfrwt beam="2">0</pdfrwt>
<totfact> 0.40718879E-02</totfact>
</mgrwt>
</event>
<event>
 4    1  0.8963905E-004  0.8549910E+02  0.7546771E-02  0.1191578E+00
         22   -1    0    0    0    0  0.00000000000E+00  0.00000000000E+00  0.40262276069E+02  0.40262276069E+02  0.00000000000E+00 0. -1.
         22   -1    0    0    0    0 -0.00000000000E+00 -0.00000000000E+00 -0.70761285299E+03  0.70761285299E+03  0.00000000000E+00 0.  1.
         24    1    1    2    0    0  0.51377067056E+01  0.28574173785E+02 -0.11260358688E+02  0.86237411080E+02  0.80419002446E+02 0. -1.
        -24    1    1    2    0    0 -0.51377067056E+01 -0.28574173785E+02 -0.65609021823E+03  0.66163771798E+03  0.80419002446E+02 0.  1.
<mgrwt>
<rscale>  0 0.85499096E+02</rscale>
<asrwt>0</asrwt>
<pdfrwt beam="1">  1       22 0.80525414E+00 0.85499096E+02</pdfrwt>
<pdfrwt beam="2">0</pdfrwt>
<totfact> 0.14850232E-02</totfact>
</mgrwt>
</event>
<event>
 4    1  0.8963905E-004  0.1123652E+03  0.7546771E-02  0.1143998E+00
         22   -1    0    0    0    0  0.00000000000E+00  0.00000000000E+00  0.15388129546E+02  0.15388129546E+02  0.00000000000E+00 0. -1.
         22   -1    0    0    0    0 -0.00000000000E+00 -0.00000000000E+00 -0.82727150294E+03  0.82727150294E+03  0.00000000000E+00 0.  1.
         24    1    1    2    0    0  0.28880913373E+02 -0.72970027982E+02 -0.36782052614E+03  0.38460094585E+03  0.80419002446E+02 0. -1.
        -24    1    1    2    0    0 -0.28880913373E+02  0.72970027982E+02 -0.44406284726E+03  0.45805868664E+03  0.80419002446E+02 0.  0.
<mgrwt>
<rscale>  0 0.11236524E+03</rscale>
<asrwt>0</asrwt>
<pdfrwt beam="1">  1       22 0.30773930E+00 0.11236524E+03</pdfrwt>
<pdfrwt beam="2">0</pdfrwt>
<totfact> 0.46640902E-02</totfact>
</mgrwt>
</event>
<event>
 4    1  0.8963905E-004  0.1170560E+03  0.7546771E-02  0.1137209E+00
         22   -1    0    0    0    0  0.00000000000E+00  0.00000000000E+00  0.23351348722E+02  0.23351348722E+02  0.00000000000E+00 0. -1.
         22   -1    0    0    0    0 -0.00000000000E+00 -0.00000000000E+00 -0.68781901346E+03  0.68781901346E+03  0.00000000000E+00 0.  1.
         24    1    1    2    0    0  0.65573109809E+02 -0.54176235220E+02 -0.19594812615E+03  0.22824938398E+03  0.80419002446E+02 0. -1.
        -24    1    1    2    0    0 -0.65573109809E+02  0.54176235220E+02 -0.46851953859E+03  0.48292097820E+03  0.80419002446E+02 0.  1.
<mgrwt>
<rscale>  0 0.11705603E+03</rscale>
<asrwt>0</asrwt>
<pdfrwt beam="1">  1       22 0.46705012E+00 0.11705603E+03</pdfrwt>
<pdfrwt beam="2">0</pdfrwt>
<totfact> 0.36801018E-02</totfact>
</mgrwt>
</event>
<event>
 4    1  0.8963905E-004  0.9785771E+02  0.7546771E-02  0.1167574E+00
         22   -1    0    0    0    0  0.00000000000E+00  0.00000000000E+00  0.33304344137E+02  0.33304344137E+02  0.00000000000E+00 0.  1.
         22   -1    0    0    0    0 -0.00000000000E+00 -0.00000000000E+00 -0.30270540527E+03  0.30270540527E+03  0.00000000000E+00 0. -1.
         24    1    1    2    0    0 -0.40411775996E+02  0.38416196230E+02 -0.97088696520E+02  0.13784899970E+03  0.80419002446E+02 0.  1.
        -24    1    1    2    0    0  0.40411775996E+02 -0.38416196230E+02 -0.17231236461E+03  0.19816074971E+03  0.80419002446E+02 0.  0.
<mgrwt>
<rscale>  0 0.97857712E+02</rscale>
<asrwt>0</asrwt>
<pdfrwt beam="1">  1       22 0.66608453E+00 0.97857712E+02</pdfrwt>
<pdfrwt beam="2">0</pdfrwt>
<totfact> 0.86141714E-02</totfact>
</mgrwt>
</event>
<event>
 4    1  0.8963905E-004  0.1322112E+03  0.7546771E-02  0.1117476E+00
         22   -1    0    0    0    0  0.00000000000E+00  0.00000000000E+00  0.19940774347E+02  0.19940774347E+02  0.00000000000E+00 0. -1.
         22   -1    0    0    0    0 -0.00000000000E+00 -0.00000000000E+00 -0.16019354337E+04  0.16019354337E+04  0.00000000000E+00 0.  1.
         24    1    1    2    0    0  0.61113947960E+01  0.10476281664E+03 -0.24531649219E+03  0.27867542803E+03  0.80419002446E+02 0. -1.
        -24    1    1    2    0    0 -0.61113947960E+01 -0.10476281664E+03 -0.13366781672E+04  0.13432007800E+04  0.80419002446E+02 0.  1.
<mgrwt>
<rscale>  0 0.13221124E+03</rscale>
<asrwt>0</asrwt>
<pdfrwt beam="1">  1       22 0.39882133E+00 0.13221124E+03</pdfrwt>
<pdfrwt beam="2">0</pdfrwt>
<totfact> 0.75187307E-03</totfact>
</mgrwt>
</event>
<event>
 4    1  0.8963905E-004  0.8128988E+02  0.7546771E-02  0.1200815E+00
         22   -1    0    0    0    0  0.00000000000E+00  0.00000000000E+00  0.16590284882E+02  0.16590284882E+02  0.00000000000E+00 0. -1.
         22   -1    0    0    0    0 -0.00000000000E+00 -0.00000000000E+00 -0.41878217646E+03  0.41878217646E+03  0.00000000000E+00 0.  1.
         24    1    1    2    0    0  0.60999266197E+01 -0.10179369159E+02 -0.15296336210E+03  0.17322192344E+03  0.80419002446E+02 0. -1.
        -24    1    1    2    0    0 -0.60999266197E+01  0.10179369159E+02 -0.24922852948E+03  0.26215053790E+03  0.80419002446E+02 0.  1.
<mgrwt>
<rscale>  0 0.81289880E+02</rscale>
<asrwt>0</asrwt>
<pdfrwt beam="1">  1       22 0.33180895E+00 0.81289880E+02</pdfrwt>
<pdfrwt beam="2">0</pdfrwt>
<totfact> 0.14106414E-01</totfact>
</mgrwt>
</event>
<event>
 4    1  0.8963905E-004  0.8697759E+02  0.7546771E-02  0.1188474E+00
         22   -1    0    0    0    0  0.00000000000E+00  0.00000000000E+00  0.34762866379E+02  0.34762866379E+02  0.00000000000E+00 0.  1.
         22   -1    0    0    0    0 -0.00000000000E+00 -0.00000000000E+00 -0.39112204909E+03  0.39112204909E+03  0.00000000000E+00 0. -1.
         24    1    1    2    0    0 -0.27477506596E+02 -0.18516810302E+02 -0.32000635044E+03  0.33161599164E+03  0.80419002446E+02 0. -1.
        -24    1    1    2    0    0  0.27477506596E+02  0.18516810302E+02 -0.36352832274E+02  0.94268923836E+02  0.80419002446E+02 0.  1.
<mgrwt>
<rscale>  0 0.86977592E+02</rscale>
<asrwt>0</asrwt>
<pdfrwt beam="1">  1       22 0.69527241E+00 0.86977592E+02</pdfrwt>
<pdfrwt beam="2">0</pdfrwt>
<totfact> 0.52923422E-02</totfact>
</mgrwt>
</event>
<event>
 4    1  0.8963905E-004  0.8612766E+02  0.7546771E-02  0.1190250E+00
         22   -1    0    0    0    0  0.00000000000E+00  0.00000000000E+00  0.44152858657E+02  0.44152858657E+02  0.00000000000E+00 0.  1.
         22   -1    0    0    0    0 -0.00000000000E+00 -0.00000000000E+00 -0.40743289252E+03  0.40743289252E+03  0.00000000000E+00 0.  1.
         24    1    1    2    0    0  0.30834134588E+02 -0.12133927391E+00 -0.85515814875E+01  0.86551164518E+02  0.80419002446E+02 0.  1.
        -24    1    1    2    0    0 -0.30834134588E+02  0.12133927391E+00 -0.35472845238E+03  0.36503458666E+03  0.80419002446E+02 0.  1.
<mgrwt>
<rscale>  0 0.86127664E+02</rscale>
<asrwt>0</asrwt>
<pdfrwt beam="1">  1       22 0.88306911E+00 0.86127664E+02</pdfrwt>
<pdfrwt beam="2">0</pdfrwt>
<totfact> 0.34356271E-02</totfact>
</mgrwt>
</event>
<event>
 4    1  0.8963905E-004  0.1047203E+03  0.7546771E-02  0.1155892E+00
         22   -1    0    0    0    0  0.00000000000E+00  0.00000000000E+00  0.16546546391E+02  0.16546546391E+02  0.00000000000E+00 0.  1.
         22   -1    0    0    0    0 -0.00000000000E+00 -0.00000000000E+00 -0.89508371437E+03  0.89508371437E+03  0.00000000000E+00 0. -1.
         24    1    1    2    0    0  0.20711583944E+02 -0.63797837402E+02 -0.20704522410E+03  0.23202171136E+03  0.80419002446E+02 0.  1.
        -24    1    1    2    0    0 -0.20711583944E+02  0.63797837402E+02 -0.67149194388E+03  0.67960854940E+03  0.80419002446E+02 0. -1.
<mgrwt>
<rscale>  0 0.10472034E+03</rscale>
<asrwt>0</asrwt>
<pdfrwt beam="1">  1       22 0.33096348E+00 0.10472034E+03</pdfrwt>
<pdfrwt beam="2">0</pdfrwt>
<totfact> 0.35793242E-02</totfact>
</mgrwt>
</event>
<event>
 4    1  0.8963905E-004  0.1405699E+03  0.7546771E-02  0.1107803E+00
         22   -1    0    0    0    0  0.00000000000E+00  0.00000000000E+00  0.12526988537E+02  0.12526988537E+02  0.00000000000E+00 0. -1.
         22   -1    0    0    0    0 -0.00000000000E+00 -0.00000000000E+00 -0.18382330436E+04  0.18382330436E+04  0.00000000000E+00 0.  1.
         24    1    1    2    0    0  0.11336032110E+03 -0.21026443508E+02 -0.12614416709E+04  0.12692497700E+04  0.80419002446E+02 0.  0.
        -24    1    1    2    0    0 -0.11336032110E+03  0.21026443508E+02 -0.56426438413E+03  0.58151026206E+03  0.80419002446E+02 0.  0.
<mgrwt>
<rscale>  0 0.14056987E+03</rscale>
<asrwt>0</asrwt>
<pdfrwt beam="1">  1       22 0.25050677E+00 0.14056987E+03</pdfrwt>
<pdfrwt beam="2">0</pdfrwt>
<totfact> 0.10023865E-02</totfact>
</mgrwt>
</event>
<event>
 4    1  0.8963905E-004  0.1012382E+03  0.7546771E-02  0.1161690E+00
         22   -1    0    0    0    0  0.00000000000E+00  0.00000000000E+00  0.34331413635E+02  0.34331413635E+02  0.00000000000E+00 0.  1.
         22   -1    0    0    0    0 -0.00000000000E+00 -0.00000000000E+00 -0.50067969187E+03  0.50067969187E+03  0.00000000000E+00 0.  1.
         24    1    1    2    0    0 -0.60727224330E+02  0.97039470093E+01 -0.63200165480E+02  0.11934588067E+03  0.80419002446E+02 0.  0.
        -24    1    1    2    0    0  0.60727224330E+02 -0.97039470093E+01 -0.40314811275E+03  0.41566522483E+03  0.80419002446E+02 0.  0.
<mgrwt>
<rscale>  0 0.10123823E+03</rscale>
<asrwt>0</asrwt>
<pdfrwt beam="1">  1       22 0.68663540E+00 0.10123823E+03</pdfrwt>
<pdfrwt beam="2">0</pdfrwt>
<totfact> 0.35989540E-02</totfact>
</mgrwt>
</event>
<event>
 4    1  0.8963905E-004  0.9213953E+02  0.7546771E-02  0.1178156E+00
         22   -1    0    0    0    0  0.00000000000E+00  0.00000000000E+00  0.46403988412E+02  0.46403988412E+02  0.00000000000E+00 0. -1.
         22   -1    0    0    0    0 -0.00000000000E+00 -0.00000000000E+00 -0.41973098266E+03  0.41973098266E+03  0.00000000000E+00 0.  1.
         24    1    1    2    0    0 -0.34222750163E+02 -0.29176695793E+02 -0.36171585140E+03  0.37326672677E+03  0.80419002446E+02 0.  1.
        -24    1    1    2    0    0  0.34222750163E+02  0.29176695793E+02 -0.11611142842E+02  0.92868244296E+02  0.80419002446E+02 0. -1.
<mgrwt>
<rscale>  0 0.92139526E+02</rscale>
<asrwt>0</asrwt>
<pdfrwt beam="1">  1       22 0.92808601E+00 0.92139526E+02</pdfrwt>
<pdfrwt beam="2">0</pdfrwt>
<totfact> 0.30337943E-02</totfact>
</mgrwt>
</event>
<event>
 4    1  0.8963905E-004  0.8791335E+02  0.7546771E-02  0.1186545E+00
         22   -1    0    0    0    0  0.00000000000E+00  0.00000000000E+00  0.33287527467E+02  0.33287527467E+02  0.00000000000E+00 0. -1.
         22   -1    0    0    0    0 -0.00000000000E+00 -0.00000000000E+00 -0.25732120722E+03  0.25732120722E+03  0.00000000000E+00 0. -1.
         24    1    1    2    0    0  0.35501731839E+02 -0.10805805725E+01 -0.15743387467E+03  0.18031689179E+03  0.80419002446E+02 0. -1.
        -24    1    1    2    0    0 -0.35501731839E+02  0.10805805725E+01 -0.66599805089E+02  0.11029184290E+03  0.80419002446E+02 0. -1.
<mgrwt>
<rscale>  0 0.87913347E+02</rscale>
<asrwt>0</asrwt>
<pdfrwt beam="1">  1       22 0.66575606E+00 0.87913347E+02</pdfrwt>
<pdfrwt beam="2">0</pdfrwt>
<totfact> 0.10979353E-01</totfact>
</mgrwt>
</event>
<event>
 4    1  0.8963905E-004  0.1086774E+03  0.7546771E-02  0.1149600E+00
         22   -1    0    0    0    0  0.00000000000E+00  0.00000000000E+00  0.13668558802E+02  0.13668558802E+02  0.00000000000E+00 0. -1.
         22   -1    0    0    0    0 -0.00000000000E+00 -0.00000000000E+00 -0.21815775336E+04  0.21815775336E+04  0.00000000000E+00 0. -1.
         24    1    1    2    0    0 -0.52511630002E+02 -0.50853566806E+02 -0.19369411946E+04  0.19399876195E+04  0.80419002446E+02 0. -1.
        -24    1    1    2    0    0  0.52511630002E+02  0.50853566806E+02 -0.23096778022E+03  0.25525847292E+03  0.80419002446E+02 0. -1.
<mgrwt>
<rscale>  0 0.10867738E+03</rscale>
<asrwt>0</asrwt>
<pdfrwt beam="1">  1       22 0.27339165E+00 0.10867738E+03</pdfrwt>
<pdfrwt beam="2">0</pdfrwt>
<totfact> 0.53446595E-03</totfact>
</mgrwt>
</event>
<event>
 4    1  0.8963905E-004  0.9446387E+02  0.7546771E-02  0.1173754E+00
         22   -1    0    0    0    0  0.00000000000E+00  0.00000000000E+00  0.39495905842E+02  0.39495905842E+02  0.00000000000E+00 0. -1.
         22   -1    0    0    0    0 -0.00000000000E+00 -0.00000000000E+00 -0.74632228170E+03  0.74632228170E+03  0.00000000000E+00 0. -1.
         24    1    1    2    0    0  0.35226082937E+02  0.34861570999E+02 -0.25323094905E+02  0.97799187837E+02  0.80419002446E+02 0. -1.
        -24    1    1    2    0    0 -0.35226082937E+02 -0.34861570999E+02 -0.68150328096E+03  0.68801899971E+03  0.80419002446E+02 0. -1.
<mgrwt>
<rscale>  0 0.94463866E+02</rscale>
<asrwt>0</asrwt>
<pdfrwt beam="1">  1       22 0.78993208E+00 0.94463866E+02</pdfrwt>
<pdfrwt beam="2">0</pdfrwt>
<totfact> 0.13926945E-02</totfact>
</mgrwt>
</event>
<event>
 4    1  0.8963905E-004  0.1138471E+03  0.7546771E-02  0.1141814E+00
         22   -1    0    0    0    0  0.00000000000E+00  0.00000000000E+00  0.24505151392E+02  0.24505151392E+02  0.00000000000E+00 0.  1.
         22   -1    0    0    0    0 -0.00000000000E+00 -0.00000000000E+00 -0.10613566194E+04  0.10613566194E+04  0.00000000000E+00 0.  1.
         24    1    1    2    0    0 -0.80303076274E+02 -0.67351458900E+01 -0.13387862965E+03  0.17574029043E+03  0.80419002446E+02 0.  1.
        -24    1    1    2    0    0  0.80303076274E+02  0.67351458900E+01 -0.90297283832E+03  0.91012148033E+03  0.80419002446E+02 0.  1.
<mgrwt>
<rscale>  0 0.11384710E+03</rscale>
<asrwt>0</asrwt>
<pdfrwt beam="1">  1       22 0.49011844E+00 0.11384710E+03</pdfrwt>
<pdfrwt beam="2">0</pdfrwt>
<totfact> 0.14273913E-02</totfact>
</mgrwt>
</event>
<event>
 4    1  0.8963905E-004  0.1073773E+03  0.7546771E-02  0.1151634E+00
         22   -1    0    0    0    0  0.00000000000E+00  0.00000000000E+00  0.12263793453E+02  0.12263793453E+02  0.00000000000E+00 0. -1.
         22   -1    0    0    0    0 -0.00000000000E+00 -0.00000000000E+00 -0.24203448365E+04  0.24203448365E+04  0.00000000000E+00 0.  1.
         24    1    1    2    0    0 -0.45545254378E+02  0.54665316602E+02 -0.25286177241E+03  0.27471614248E+03  0.80419002446E+02 0. -1.
        -24    1    1    2    0    0  0.45545254378E+02 -0.54665316602E+02 -0.21552192706E+04  0.21578924875E+04  0.80419002446E+02 0.  1.
<mgrwt>
<rscale>  0 0.10737729E+03</rscale>
<asrwt>0</asrwt>
<pdfrwt beam="1">  1       22 0.24523909E+00 0.10737729E+03</pdfrwt>
<pdfrwt beam="2">0</pdfrwt>
<totfact> 0.44215075E-03</totfact>
</mgrwt>
</event>
<event>
 4    1  0.8963905E-004  0.1233382E+03  0.7546771E-02  0.1128649E+00
         22   -1    0    0    0    0  0.00000000000E+00  0.00000000000E+00  0.36315090217E+02  0.36315090217E+02  0.00000000000E+00 0.  1.
         22   -1    0    0    0    0 -0.00000000000E+00 -0.00000000000E+00 -0.48581241052E+03  0.48581241052E+03  0.00000000000E+00 0.  1.
         24    1    1    2    0    0  0.92677142394E+02  0.12492150473E+02 -0.12786026657E+03  0.17765294894E+03  0.80419002446E+02 0.  1.
        -24    1    1    2    0    0 -0.92677142394E+02 -0.12492150473E+02 -0.32163705374E+03  0.34447455180E+03  0.80419002446E+02 0.  1.
<mgrwt>
<rscale>  0 0.12333824E+03</rscale>
<asrwt>0</asrwt>
<pdfrwt beam="1">  1       22 0.72630690E+00 0.12333824E+03</pdfrwt>
<pdfrwt beam="2">0</pdfrwt>
<totfact> 0.35400969E-02</totfact>
</mgrwt>
</event>
<event>
 4    1  0.8963905E-004  0.1264307E+03  0.7546771E-02  0.1124640E+00
         22   -1    0    0    0    0  0.00000000000E+00  0.00000000000E+00  0.25745956717E+02  0.25745956717E+02  0.00000000000E+00 0.  1.
         22   -1    0    0    0    0 -0.00000000000E+00 -0.00000000000E+00 -0.67820207214E+03  0.67820207214E+03  0.00000000000E+00 0.  1.
         24    1    1    2    0    0 -0.35104700940E+02 -0.91022874408E+02 -0.22388574193E+03  0.25711776502E+03  0.80419002446E+02 0.  1.
        -24    1    1    2    0    0  0.35104700940E+02  0.91022874408E+02 -0.42857037349E+03  0.44683026384E+03  0.80419002446E+02 0.  1.
<mgrwt>
<rscale>  0 0.12643069E+03</rscale>
<asrwt>0</asrwt>
<pdfrwt beam="1">  1       22 0.51491167E+00 0.12643069E+03</pdfrwt>
<pdfrwt beam="2">0</pdfrwt>
<totfact> 0.32852072E-02</totfact>
</mgrwt>
</event>
<event>
 4    1  0.8963905E-004  0.9128745E+02  0.7546771E-02  0.1179806E+00
         22   -1    0    0    0    0  0.00000000000E+00  0.00000000000E+00  0.38297275189E+01  0.38297275189E+01  0.00000000000E+00 0. -1.
         22   -1    0    0    0    0 -0.00000000000E+00 -0.00000000000E+00 -0.21931215484E+04  0.21931215484E+04  0.00000000000E+00 0.  1.
         24    1    1    2    0    0 -0.24682809585E+01  0.43128768441E+02 -0.11917688876E+04  0.11952600054E+04  0.80419002446E+02 0.  1.
        -24    1    1    2    0    0  0.24682809585E+01 -0.43128768441E+02 -0.99752293320E+03  0.10016912704E+04  0.80419002446E+02 0. -1.
<mgrwt>
<rscale>  0 0.91287453E+02</rscale>
<asrwt>0</asrwt>
<pdfrwt beam="1">  1       22 0.76579277E-01 0.91287453E+02</pdfrwt>
<pdfrwt beam="2">0</pdfrwt>
<totfact> 0.24847586E-02</totfact>
</mgrwt>
</event>
<event>
 4    1  0.8963905E-004  0.1120677E+03  0.7546771E-02  0.1144441E+00
         22   -1    0    0    0    0  0.00000000000E+00  0.00000000000E+00  0.25621987844E+02  0.25621987844E+02  0.00000000000E+00 0.  1.
         22   -1    0    0    0    0 -0.00000000000E+00 -0.00000000000E+00 -0.73749113255E+03  0.73749113255E+03  0.00000000000E+00 0. -1.
         24    1    1    2    0    0 -0.74494589300E+02 -0.23292046683E+02 -0.57689242589E+03  0.58767682469E+03  0.80419002446E+02 0.  0.
        -24    1    1    2    0    0  0.74494589300E+02  0.23292046683E+02 -0.13497671881E+03  0.17543629570E+03  0.80419002446E+02 0.  0.
<mgrwt>
<rscale>  0 0.11206774E+03</rscale>
<asrwt>0</asrwt>
<pdfrwt beam="1">  1       22 0.51246085E+00 0.11206774E+03</pdfrwt>
<pdfrwt beam="2">0</pdfrwt>
<totfact> 0.27942209E-02</totfact>
</mgrwt>
</event>
<event>
 4    1  0.8963905E-004  0.1074986E+03  0.7546771E-02  0.1151443E+00
         22   -1    0    0    0    0  0.00000000000E+00  0.00000000000E+00  0.22754075013E+02  0.22754075013E+02  0.00000000000E+00 0.  1.
         22   -1    0    0    0    0 -0.00000000000E+00 -0.00000000000E+00 -0.94949472264E+03  0.94949472264E+03  0.00000000000E+00 0.  1.
         24    1    1    2    0    0  0.35488332994E+01 -0.71247064744E+02 -0.79490673913E+03  0.80214255486E+03  0.80419002446E+02 0.  1.
        -24    1    1    2    0    0 -0.35488332994E+01  0.71247064744E+02 -0.13183390850E+03  0.17010624279E+03  0.80419002446E+02 0.  1.
<mgrwt>
<rscale>  0 0.10749863E+03</rscale>
<asrwt>0</asrwt>
<pdfrwt beam="1">  1       22 0.45509321E+00 0.10749863E+03</pdfrwt>
<pdfrwt beam="2">0</pdfrwt>
<totfact> 0.20077788E-02</totfact>
</mgrwt>
</event>
<event>
 4    1  0.8963905E-004  0.1268702E+03  0.7546771E-02  0.1124081E+00
         22   -1    0    0    0    0  0.00000000000E+00  0.00000000000E+00  0.12913611702E+02  0.12913611702E+02  0.00000000000E+00 0. -1.
         22   -1    0    0    0    0 -0.00000000000E+00 -0.00000000000E+00 -0.21918189457E+04  0.21918189457E+04  0.00000000000E+00 0. -1.
         24    1    1    2    0    0 -0.62311929375E+02 -0.75802713933E+02 -0.18134325738E+04  0.18178651610E+04  0.80419002446E+02 0. -1.
        -24    1    1    2    0    0  0.62311929375E+02  0.75802713933E+02 -0.36547276023E+03  0.38686739641E+03  0.80419002446E+02 0. -1.
<mgrwt>
<rscale>  0 0.12687019E+03</rscale>
<asrwt>0</asrwt>
<pdfrwt beam="1">  1       22 0.25829021E+00 0.12687019E+03</pdfrwt>
<pdfrwt beam="2">0</pdfrwt>
<totfact> 0.57530507E-03</totfact>
</mgrwt>
</event>
<event>
 4    1  0.8963905E-004  0.1802309E+03  0.7546771E-02  0.1070275E+00
         22   -1    0    0    0    0  0.00000000000E+00  0.00000000000E+00  0.37636761580E+02  0.37636761580E+02  0.00000000000E+00 0. -1.
         22   -1    0    0    0    0 -0.00000000000E+00 -0.00000000000E+00 -0.14237822426E+04  0.14237822426E+04  0.00000000000E+00 0.  1.
         24    1    1    2    0    0  0.11171697770E+03 -0.11634126934E+03 -0.23451642684E+03  0.29577211578E+03  0.80419002446E+02 0. -1.
        -24    1    1    2    0    0 -0.11171697770E+03  0.11634126934E+03 -0.11516290542E+04  0.11656468884E+04  0.80419002446E+02 0.  1.
<mgrwt>
<rscale>  0 0.18023094E+03</rscale>
<asrwt>0</asrwt>
<pdfrwt beam="1">  1       22 0.75272616E+00 0.18023094E+03</pdfrwt>
<pdfrwt beam="2">0</pdfrwt>
<totfact> 0.39666877E-03</totfact>
</mgrwt>
</event>
<event>
 4    1  0.8963905E-004  0.8129456E+02  0.7546771E-02  0.1200805E+00
         22   -1    0    0    0    0  0.00000000000E+00  0.00000000000E+00  0.29592924598E+01  0.29592924598E+01  0.00000000000E+00 0. -1.
         22   -1    0    0    0    0 -0.00000000000E+00 -0.00000000000E+00 -0.32043934188E+04  0.32043934188E+04  0.00000000000E+00 0. -1.
         24    1    1    2    0    0  0.11226258449E+02  0.39446313440E+01 -0.71786459411E+03  0.72245302991E+03  0.80419002446E+02 0. -1.
        -24    1    1    2    0    0 -0.11226258449E+02 -0.39446313440E+01 -0.24835695322E+04  0.24848996813E+04  0.80419002446E+02 0. -1.
<mgrwt>
<rscale>  0 0.81294557E+02</rscale>
<asrwt>0</asrwt>
<pdfrwt beam="1">  1       22 0.59111005E-01 0.81294557E+02</pdfrwt>
<pdfrwt beam="2">0</pdfrwt>
<totfact> 0.78211521E-03</totfact>
</mgrwt>
</event>
<event>
 4    1  0.8963905E-004  0.8292971E+02  0.7546771E-02  0.1197143E+00
         22   -1    0    0    0    0  0.00000000000E+00  0.00000000000E+00  0.86864662021E+01  0.86864662021E+01  0.00000000000E+00 0. -1.
         22   -1    0    0    0    0 -0.00000000000E+00 -0.00000000000E+00 -0.11401118587E+04  0.11401118587E+04  0.00000000000E+00 0.  1.
         24    1    1    2    0    0 -0.77421130328E+01 -0.18713118387E+02 -0.88323025564E+03  0.88711499906E+03  0.80419002446E+02 0.  1.
        -24    1    1    2    0    0  0.77421130328E+01  0.18713118387E+02 -0.24819513690E+03  0.26168332589E+03  0.80419002446E+02 0. -1.
<mgrwt>
<rscale>  0 0.82929712E+02</rscale>
<asrwt>0</asrwt>
<pdfrwt beam="1">  1       22 0.17370503E+00 0.82929712E+02</pdfrwt>
<pdfrwt beam="2">0</pdfrwt>
<totfact> 0.49283693E-02</totfact>
</mgrwt>
</event>
<event>
 4    1  0.8963905E-004  0.8464836E+02  0.7546771E-02  0.1193396E+00
         22   -1    0    0    0    0  0.00000000000E+00  0.00000000000E+00  0.34345817626E+02  0.34345817626E+02  0.00000000000E+00 0.  1.
         22   -1    0    0    0    0 -0.00000000000E+00 -0.00000000000E+00 -0.82213881670E+03  0.82213881670E+03  0.00000000000E+00 0. -1.
         24    1    1    2    0    0 -0.97273905547E-01 -0.26421944724E+02 -0.23957847856E+02  0.87973422427E+02  0.80419002446E+02 0.  1.
        -24    1    1    2    0    0  0.97273905547E-01  0.26421944724E+02 -0.76383515122E+03  0.76851121190E+03  0.80419002446E+02 0. -1.
<mgrwt>
<rscale>  0 0.84648358E+02</rscale>
<asrwt>0</asrwt>
<pdfrwt beam="1">  1       22 0.68689483E+00 0.84648358E+02</pdfrwt>
<pdfrwt beam="2">0</pdfrwt>
<totfact> 0.14113763E-02</totfact>
</mgrwt>
</event>
<event>
 4    1  0.8963905E-004  0.1144914E+03  0.7546771E-02  0.1140876E+00
         22   -1    0    0    0    0  0.00000000000E+00  0.00000000000E+00  0.35135244635E+02  0.35135244635E+02  0.00000000000E+00 0.  1.
         22   -1    0    0    0    0 -0.00000000000E+00 -0.00000000000E+00 -0.89518277998E+03  0.89518277998E+03  0.00000000000E+00 0. -1.
         24    1    1    2    0    0 -0.47177333046E+02 -0.66448175735E+02 -0.74782550307E+02  0.13675052686E+03  0.80419002446E+02 0.  1.
        -24    1    1    2    0    0  0.47177333046E+02  0.66448175735E+02 -0.78526498504E+03  0.79356749776E+03  0.80419002446E+02 0. -1.
<mgrwt>
<rscale>  0 0.11449138E+03</rscale>
<asrwt>0</asrwt>
<pdfrwt beam="1">  1       22 0.70270132E+00 0.11449138E+03</pdfrwt>
<pdfrwt beam="2">0</pdfrwt>
<totfact> 0.11789300E-02</totfact>
</mgrwt>
</event>
<event>
 4    1  0.8963905E-004  0.8784810E+02  0.7546771E-02  0.1186678E+00
         22   -1    0    0    0    0  0.00000000000E+00  0.00000000000E+00  0.27644954640E+02  0.27644954640E+02  0.00000000000E+00 0. -1.
         22   -1    0    0    0    0 -0.00000000000E+00 -0.00000000000E+00 -0.65694693654E+03  0.65694693654E+03  0.00000000000E+00 0.  1.
         24    1    1    2    0    0 -0.33943857792E+02 -0.98938064209E+01 -0.57422527929E+03  0.58090615440E+03  0.80419002446E+02 0.  1.
        -24    1    1    2    0    0  0.33943857792E+02  0.98938064209E+01 -0.55076702611E+02  0.10368573678E+03  0.80419002446E+02 0. -1.
<mgrwt>
<rscale>  0 0.87848101E+02</rscale>
<asrwt>0</asrwt>
<pdfrwt beam="1">  1       22 0.55289659E+00 0.87848101E+02</pdfrwt>
<pdfrwt beam="2">0</pdfrwt>
<totfact> 0.30376588E-02</totfact>
</mgrwt>
</event>
<event>
 4    1  0.8963905E-004  0.8274595E+02  0.7546771E-02  0.1197550E+00
         22   -1    0    0    0    0  0.00000000000E+00  0.00000000000E+00  0.42346700867E+02  0.42346700867E+02  0.00000000000E+00 0.  1.
         22   -1    0    0    0    0 -0.00000000000E+00 -0.00000000000E+00 -0.29447360979E+03  0.29447360979E+03  0.00000000000E+00 0. -1.
         24    1    1    2    0    0 -0.19167950128E+02  0.35023646393E+01 -0.12973786074E+02  0.83756862105E+02  0.80419002446E+02 0.  1.
        -24    1    1    2    0    0  0.19167950128E+02 -0.35023646393E+01 -0.23915312285E+03  0.25306344855E+03  0.80419002446E+02 0. -1.
<mgrwt>
<rscale>  0 0.82745954E+02</rscale>
<asrwt>0</asrwt>
<pdfrwt beam="1">  1       22 0.84693422E+00 0.82745954E+02</pdfrwt>
<pdfrwt beam="2">0</pdfrwt>
<totfact> 0.61531649E-02</totfact>
</mgrwt>
</event>
<event>
 4    1  0.8963905E-004  0.8722201E+02  0.7546771E-02  0.1187967E+00
         22   -1    0    0    0    0  0.00000000000E+00  0.00000000000E+00  0.20980356664E+02  0.20980356664E+02  0.00000000000E+00 0.  1.
         22   -1    0    0    0    0 -0.00000000000E+00 -0.00000000000E+00 -0.13869327621E+04  0.13869327621E+04  0.00000000000E+00 0. -1.
         24    1    1    2    0    0  0.75046274221E+01 -0.32926325449E+02 -0.12879501290E+04  0.12909001562E+04  0.80419002446E+02 0. -1.
        -24    1    1    2    0    0 -0.75046274221E+01  0.32926325449E+02 -0.78002276418E+02  0.11701296262E+03  0.80419002446E+02 0.  1.
<mgrwt>
<rscale>  0 0.87222006E+02</rscale>
<asrwt>0</asrwt>
<pdfrwt beam="1">  1       22 0.41960514E+00 0.87222006E+02</pdfrwt>
<pdfrwt beam="2">0</pdfrwt>
<totfact> 0.96098237E-03</totfact>
</mgrwt>
</event>
<event>
 4    1  0.8963905E-004  0.8394946E+02  0.7546771E-02  0.1194908E+00
         22   -1    0    0    0    0  0.00000000000E+00  0.00000000000E+00  0.23494328578E+02  0.23494328578E+02  0.00000000000E+00 0. -1.
         22   -1    0    0    0    0 -0.00000000000E+00 -0.00000000000E+00 -0.42303125497E+03  0.42303125497E+03  0.00000000000E+00 0.  1.
         24    1    1    2    0    0 -0.23575963723E+02 -0.49467487147E+01 -0.32018798731E+03  0.33101036171E+03  0.80419002446E+02 0.  1.
        -24    1    1    2    0    0  0.23575963723E+02  0.49467487147E+01 -0.79348939081E+02  0.11551522184E+03  0.80419002446E+02 0. -1.
<mgrwt>
<rscale>  0 0.83949463E+02</rscale>
<asrwt>0</asrwt>
<pdfrwt beam="1">  1       22 0.46989164E+00 0.83949463E+02</pdfrwt>
<pdfrwt beam="2">0</pdfrwt>
<totfact> 0.84061383E-02</totfact>
</mgrwt>
</event>
<event>
 4    1  0.8963905E-004  0.1002607E+03  0.7546771E-02  0.1163365E+00
         22   -1    0    0    0    0  0.00000000000E+00  0.00000000000E+00  0.26811572867E+02  0.26811572867E+02  0.00000000000E+00 0.  1.
         22   -1    0    0    0    0 -0.00000000000E+00 -0.00000000000E+00 -0.66569741288E+03  0.66569741288E+03  0.00000000000E+00 0.  1.
         24    1    1    2    0    0  0.50234895441E+02 -0.32579810279E+02 -0.54828560970E+03  0.55737717437E+03  0.80419002446E+02 0.  1.
        -24    1    1    2    0    0 -0.50234895441E+02  0.32579810279E+02 -0.90600230320E+02  0.13513181138E+03  0.80419002446E+02 0.  1.
<mgrwt>
<rscale>  0 0.10026068E+03</rscale>
<asrwt>0</asrwt>
<pdfrwt beam="1">  1       22 0.53623892E+00 0.10026068E+03</pdfrwt>
<pdfrwt beam="2">0</pdfrwt>
<totfact> 0.31391864E-02</totfact>
</mgrwt>
</event>
<event>
 4    1  0.8963905E-004  0.1051017E+03  0.7546771E-02  0.1155272E+00
         22   -1    0    0    0    0  0.00000000000E+00  0.00000000000E+00  0.11055307487E+02  0.11055307487E+02  0.00000000000E+00 0. -1.
         22   -1    0    0    0    0 -0.00000000000E+00 -0.00000000000E+00 -0.10096572379E+04  0.10096572379E+04  0.00000000000E+00 0. -1.
         24    1    1    2    0    0 -0.45593571724E+02 -0.50003713550E+02 -0.55126306910E+03  0.56119277655E+03  0.80419002446E+02 0. -1.
        -24    1    1    2    0    0  0.45593571724E+02  0.50003713550E+02 -0.44733886133E+03  0.45951976885E+03  0.80419002446E+02 0. -1.
<mgrwt>
<rscale>  0 0.10510167E+03</rscale>
<asrwt>0</asrwt>
<pdfrwt beam="1">  1       22 0.22112640E+00 0.10510167E+03</pdfrwt>
<pdfrwt beam="2">0</pdfrwt>
<totfact> 0.47982176E-02</totfact>
</mgrwt>
</event>
<event>
 4    1  0.8963905E-004  0.1469253E+03  0.7546771E-02  0.1100930E+00
         22   -1    0    0    0    0  0.00000000000E+00  0.00000000000E+00  0.14771369251E+02  0.14771369251E+02  0.00000000000E+00 0.  1.
         22   -1    0    0    0    0 -0.00000000000E+00 -0.00000000000E+00 -0.15439794222E+04  0.15439794222E+04  0.00000000000E+00 0. -1.
         24    1    1    2    0    0 -0.45888327487E+02  0.11407932203E+03 -0.58437195147E+03  0.60255922857E+03  0.80419002446E+02 0.  1.
        -24    1    1    2    0    0  0.45888327487E+02 -0.11407932203E+03 -0.94483610152E+03  0.95619156292E+03  0.80419002446E+02 0. -1.
<mgrwt>
<rscale>  0 0.14692531E+03</rscale>
<asrwt>0</asrwt>
<pdfrwt beam="1">  1       22 0.29540859E+00 0.14692531E+03</pdfrwt>
<pdfrwt beam="2">0</pdfrwt>
<totfact> 0.12674328E-02</totfact>
</mgrwt>
</event>
<event>
 4    1  0.8963905E-004  0.9383138E+02  0.7546771E-02  0.1174937E+00
         22   -1    0    0    0    0  0.00000000000E+00  0.00000000000E+00  0.31997200195E+02  0.31997200195E+02  0.00000000000E+00 0.  1.
         22   -1    0    0    0    0 -0.00000000000E+00 -0.00000000000E+00 -0.30099244273E+03  0.30099244273E+03  0.00000000000E+00 0. -1.
         24    1    1    2    0    0 -0.46808562726E+02  0.12085973445E+02 -0.85721048550E+02  0.12709219652E+03  0.80419002446E+02 0.  0.
        -24    1    1    2    0    0  0.46808562726E+02 -0.12085973445E+02 -0.18327419399E+03  0.20589744640E+03  0.80419002446E+02 0.  0.
<mgrwt>
<rscale>  0 0.93831382E+02</rscale>
<asrwt>0</asrwt>
<pdfrwt beam="1">  1       22 0.63994106E+00 0.93831382E+02</pdfrwt>
<pdfrwt beam="2">0</pdfrwt>
<totfact> 0.92074374E-02</totfact>
</mgrwt>
</event>
<event>
 4    1  0.8963905E-004  0.8806989E+02  0.7546771E-02  0.1186225E+00
         22   -1    0    0    0    0  0.00000000000E+00  0.00000000000E+00  0.46155607187E+02  0.46155607187E+02  0.00000000000E+00 0. -1.
         22   -1    0    0    0    0 -0.00000000000E+00 -0.00000000000E+00 -0.24427633202E+03  0.24427633202E+03  0.00000000000E+00 0.  1.
         24    1    1    2    0    0 -0.31691995332E+02 -0.16873279430E+02 -0.18018169278E+03  0.20055360504E+03  0.80419002446E+02 0.  1.
        -24    1    1    2    0    0  0.31691995332E+02  0.16873279430E+02 -0.17939032048E+02  0.89878334163E+02  0.80419002446E+02 0. -1.
<mgrwt>
<rscale>  0 0.88069893E+02</rscale>
<asrwt>0</asrwt>
<pdfrwt beam="1">  1       22 0.92310867E+00 0.88069893E+02</pdfrwt>
<pdfrwt beam="2">0</pdfrwt>
<totfact> 0.71955756E-02</totfact>
</mgrwt>
</event>
<event>
 4    1  0.8963905E-004  0.8137041E+02  0.7546771E-02  0.1200633E+00
         22   -1    0    0    0    0  0.00000000000E+00  0.00000000000E+00  0.30633316542E+02  0.30633316542E+02  0.00000000000E+00 0. -1.
         22   -1    0    0    0    0 -0.00000000000E+00 -0.00000000000E+00 -0.67164081088E+03  0.67164081088E+03  0.00000000000E+00 0.  1.
         24    1    1    2    0    0 -0.17085480671E+01  0.12288576366E+02 -0.60967278572E+03  0.61507889726E+03  0.80419002446E+02 0.  1.
        -24    1    1    2    0    0  0.17085480671E+01 -0.12288576366E+02 -0.31334708618E+02  0.87195230169E+02  0.80419002446E+02 0. -1.
<mgrwt>
<rscale>  0 0.81370414E+02</rscale>
<asrwt>0</asrwt>
<pdfrwt beam="1">  1       22 0.61266168E+00 0.81370414E+02</pdfrwt>
<pdfrwt beam="2">0</pdfrwt>
<totfact> 0.24752974E-02</totfact>
</mgrwt>
</event>
<event>
 4    1  0.8963905E-004  0.9363386E+02  0.7546771E-02  0.1175309E+00
         22   -1    0    0    0    0  0.00000000000E+00  0.00000000000E+00  0.21512258887E+02  0.21512258887E+02  0.00000000000E+00 0. -1.
         22   -1    0    0    0    0 -0.00000000000E+00 -0.00000000000E+00 -0.67792217748E+03  0.67792217748E+03  0.00000000000E+00 0.  1.
         24    1    1    2    0    0  0.42076191883E+02 -0.23014732593E+02 -0.54906080025E+03  0.55698748833E+03  0.80419002446E+02 0.  1.
        -24    1    1    2    0    0 -0.42076191883E+02  0.23014732593E+02 -0.10734911835E+03  0.14244694803E+03  0.80419002446E+02 0. -1.
<mgrwt>
<rscale>  0 0.93633860E+02</rscale>
<asrwt>0</asrwt>
<pdfrwt beam="1">  1       22 0.43024552E+00 0.93633860E+02</pdfrwt>
<pdfrwt beam="2">0</pdfrwt>
<totfact> 0.41927502E-02</totfact>
</mgrwt>
</event>
<event>
 4    1  0.8963905E-004  0.8999600E+02  0.7546771E-02  0.1182346E+00
         22   -1    0    0    0    0  0.00000000000E+00  0.00000000000E+00  0.46681801167E+02  0.46681801167E+02  0.00000000000E+00 0. -1.
         22   -1    0    0    0    0 -0.00000000000E+00 -0.00000000000E+00 -0.18335720566E+03  0.18335720566E+03  0.00000000000E+00 0.  1.
         24    1    1    2    0    0 -0.23350894700E+02  0.32966649596E+02 -0.95006608246E+02  0.13086457058E+03  0.80419002446E+02 0.  0.
        -24    1    1    2    0    0  0.23350894700E+02 -0.32966649596E+02 -0.41668796243E+02  0.99174436241E+02  0.80419002446E+02 0.  0.
<mgrwt>
<rscale>  0 0.89996001E+02</rscale>
<asrwt>0</asrwt>
<pdfrwt beam="1">  1       22 0.93363736E+00 0.89996001E+02</pdfrwt>
<pdfrwt beam="2">0</pdfrwt>
<totfact> 0.10806632E-01</totfact>
</mgrwt>
</event>
<event>
 4    1  0.8963905E-004  0.8902287E+02  0.7546771E-02  0.1184292E+00
         22   -1    0    0    0    0  0.00000000000E+00  0.00000000000E+00  0.39102883830E+02  0.39102883830E+02  0.00000000000E+00 0.  1.
         22   -1    0    0    0    0 -0.00000000000E+00 -0.00000000000E+00 -0.96758838073E+03  0.96758838073E+03  0.00000000000E+00 0. -1.
         24    1    1    2    0    0 -0.17330088531E+02 -0.34022405486E+02 -0.16706854059E+02  0.90576989189E+02  0.80419002446E+02 0.  1.
        -24    1    1    2    0    0  0.17330088531E+02  0.34022405486E+02 -0.91177864284E+03  0.91611427537E+03  0.80419002446E+02 0. -1.
<mgrwt>
<rscale>  0 0.89022873E+02</rscale>
<asrwt>0</asrwt>
<pdfrwt beam="1">  1       22 0.78206456E+00 0.89022873E+02</pdfrwt>
<pdfrwt beam="2">0</pdfrwt>
<totfact> 0.83537666E-03</totfact>
</mgrwt>
</event>
<event>
 4    1  0.8963905E-004  0.9742737E+02  0.7546771E-02  0.1168342E+00
         22   -1    0    0    0    0  0.00000000000E+00  0.00000000000E+00  0.34038234731E+02  0.34038234731E+02  0.00000000000E+00 0. -1.
         22   -1    0    0    0    0 -0.00000000000E+00 -0.00000000000E+00 -0.52754596458E+03  0.52754596458E+03  0.00000000000E+00 0.  1.
         24    1    1    2    0    0  0.54994364428E+02  0.70428344154E+00 -0.53967863194E+02  0.11137604027E+03  0.80419002446E+02 0. -1.
        -24    1    1    2    0    0 -0.54994364428E+02 -0.70428344154E+00 -0.43953986665E+03  0.45020815904E+03  0.80419002446E+02 0.  1.
<mgrwt>
<rscale>  0 0.97427368E+02</rscale>
<asrwt>0</asrwt>
<pdfrwt beam="1">  1       22 0.68076608E+00 0.97427368E+02</pdfrwt>
<pdfrwt beam="2">0</pdfrwt>
<totfact> 0.33167062E-02</totfact>
</mgrwt>
</event>
<event>
 4    1  0.8963905E-004  0.1911573E+03  0.7546771E-02  0.1061765E+00
         22   -1    0    0    0    0  0.00000000000E+00  0.00000000000E+00  0.19268509711E+02  0.19268509711E+02  0.00000000000E+00 0.  1.
         22   -1    0    0    0    0 -0.00000000000E+00 -0.00000000000E+00 -0.22158901306E+04  0.22158901306E+04  0.00000000000E+00 0.  1.
         24    1    1    2    0    0  0.92067430291E+02 -0.14696078066E+03 -0.15226591386E+04  0.15346113355E+04  0.80419002446E+02 0.  1.
        -24    1    1    2    0    0 -0.92067430291E+02  0.14696078066E+03 -0.67396248230E+03  0.70054730481E+03  0.80419002446E+02 0.  1.
<mgrwt>
<rscale>  0 0.19115726E+03</rscale>
<asrwt>0</asrwt>
<pdfrwt beam="1">  1       22 0.38532172E+00 0.19115726E+03</pdfrwt>
<pdfrwt beam="2">0</pdfrwt>
<totfact> 0.32990239E-03</totfact>
</mgrwt>
</event>
<event>
 4    1  0.8963905E-004  0.1041989E+03  0.7546771E-02  0.1156744E+00
         22   -1    0    0    0    0  0.00000000000E+00  0.00000000000E+00  0.46568222985E+02  0.46568222985E+02  0.00000000000E+00 0. -1.
         22   -1    0    0    0    0 -0.00000000000E+00 -0.00000000000E+00 -0.29053231465E+03  0.29053231465E+03  0.00000000000E+00 0. -1.
         24    1    1    2    0    0  0.61073198591E+02 -0.25695633451E+02 -0.47075746977E+02  0.11433959538E+03  0.80419002446E+02 0. -1.
        -24    1    1    2    0    0 -0.61073198591E+02  0.25695633451E+02 -0.19688834469E+03  0.22276094226E+03  0.80419002446E+02 0. -1.
<mgrwt>
<rscale>  0 0.10419893E+03</rscale>
<asrwt>0</asrwt>
<pdfrwt beam="1">  1       22 0.93136272E+00 0.10419893E+03</pdfrwt>
<pdfrwt beam="2">0</pdfrwt>
<totfact> 0.55161911E-02</totfact>
</mgrwt>
</event>
<event>
 4    1  0.8963905E-004  0.8328631E+02  0.7546771E-02  0.1196357E+00
         22   -1    0    0    0    0  0.00000000000E+00  0.00000000000E+00  0.45826618136E+02  0.45826618136E+02  0.00000000000E+00 0. -1.
         22   -1    0    0    0    0 -0.00000000000E+00 -0.00000000000E+00 -0.30983601637E+03  0.30983601637E+03  0.00000000000E+00 0.  1.
         24    1    1    2    0    0  0.11015735799E+02 -0.18656032043E+02 -0.48257279648E+01  0.83426000573E+02  0.80419002446E+02 0. -1.
        -24    1    1    2    0    0 -0.11015735799E+02  0.18656032043E+02 -0.25918367027E+03  0.27223663394E+03  0.80419002446E+02 0.  1.
<mgrwt>
<rscale>  0 0.83286313E+02</rscale>
<asrwt>0</asrwt>
<pdfrwt beam="1">  1       22 0.91653653E+00 0.83286313E+02</pdfrwt>
<pdfrwt beam="2">0</pdfrwt>
<totfact> 0.50218602E-02</totfact>
</mgrwt>
</event>
<event>
 4    1  0.8963905E-004  0.1194936E+03  0.7546771E-02  0.1133819E+00
         22   -1    0    0    0    0  0.00000000000E+00  0.00000000000E+00  0.77081607480E+01  0.77081607480E+01  0.00000000000E+00 0. -1.
         22   -1    0    0    0    0 -0.00000000000E+00 -0.00000000000E+00 -0.22492163584E+04  0.22492163584E+04  0.00000000000E+00 0.  1.
         24    1    1    2    0    0  0.86727920932E+02 -0.17022583589E+02 -0.64677661117E+03  0.65772235886E+03  0.80419002446E+02 0. -1.
        -24    1    1    2    0    0 -0.86727920932E+02  0.17022583589E+02 -0.15947315865E+04  0.15992021603E+04  0.80419002446E+02 0.  0.
<mgrwt>
<rscale>  0 0.11949358E+03</rscale>
<asrwt>0</asrwt>
<pdfrwt beam="1">  1       22 0.15415782E+00 0.11949358E+03</pdfrwt>
<pdfrwt beam="2">0</pdfrwt>
<totfact> 0.10220069E-02</totfact>
</mgrwt>
</event>
<event>
 4    1  0.8963905E-004  0.9456843E+02  0.7546771E-02  0.1173559E+00
         22   -1    0    0    0    0  0.00000000000E+00  0.00000000000E+00  0.17971891822E+02  0.17971891822E+02  0.00000000000E+00 0. -1.
         22   -1    0    0    0    0 -0.00000000000E+00 -0.00000000000E+00 -0.71050841596E+03  0.71050841596E+03  0.00000000000E+00 0.  1.
         24    1    1    2    0    0  0.49748104204E+02  0.10479634569E+01 -0.54564677733E+03  0.55378117850E+03  0.80419002446E+02 0.  0.
        -24    1    1    2    0    0 -0.49748104204E+02 -0.10479634569E+01 -0.14688974681E+03  0.17469912928E+03  0.80419002446E+02 0. -1.
<mgrwt>
<rscale>  0 0.94568431E+02</rscale>
<asrwt>0</asrwt>
<pdfrwt beam="1">  1       22 0.35942129E+00 0.94568431E+02</pdfrwt>
<pdfrwt beam="2">0</pdfrwt>
<totfact> 0.49787706E-02</totfact>
</mgrwt>
</event>
<event>
 4    1  0.8963905E-004  0.8465073E+02  0.7546771E-02  0.1193391E+00
         22   -1    0    0    0    0  0.00000000000E+00  0.00000000000E+00  0.93645529499E+01  0.93645529499E+01  0.00000000000E+00 0.  1.
         22   -1    0    0    0    0 -0.00000000000E+00 -0.00000000000E+00 -0.76633769773E+03  0.76633769773E+03  0.00000000000E+00 0. -1.
         24    1    1    2    0    0 -0.14442098491E+02 -0.22134947223E+02 -0.39343754303E+03  0.40244110913E+03  0.80419002446E+02 0.  0.
        -24    1    1    2    0    0  0.14442098491E+02  0.22134947223E+02 -0.36353560174E+03  0.37326114154E+03  0.80419002446E+02 0. -1.
<mgrwt>
<rscale>  0 0.84650730E+02</rscale>
<asrwt>0</asrwt>
<pdfrwt beam="1">  1       22 0.18730092E+00 0.84650730E+02</pdfrwt>
<pdfrwt beam="2">0</pdfrwt>
<totfact> 0.10213865E-01</totfact>
</mgrwt>
</event>
<event>
 4    1  0.8963905E-004  0.1391151E+03  0.7546771E-02  0.1109432E+00
         22   -1    0    0    0    0  0.00000000000E+00  0.00000000000E+00  0.12231838241E+02  0.12231838241E+02  0.00000000000E+00 0.  1.
         22   -1    0    0    0    0 -0.00000000000E+00 -0.00000000000E+00 -0.16177311757E+04  0.16177311757E+04  0.00000000000E+00 0. -1.
         24    1    1    2    0    0  0.31791884822E+02  0.10897274046E+03 -0.92356094257E+03  0.93397955690E+03  0.80419002446E+02 0.  0.
        -24    1    1    2    0    0 -0.31791884822E+02 -0.10897274046E+03 -0.68193839487E+03  0.69598345703E+03  0.80419002446E+02 0.  0.
<mgrwt>
<rscale>  0 0.13911505E+03</rscale>
<asrwt>0</asrwt>
<pdfrwt beam="1">  1       22 0.24468725E+00 0.13911505E+03</pdfrwt>
<pdfrwt beam="2">0</pdfrwt>
<totfact> 0.14464483E-02</totfact>
</mgrwt>
</event>
<event>
 4    1  0.8963905E-004  0.9738251E+02  0.7546771E-02  0.1168422E+00
         22   -1    0    0    0    0  0.00000000000E+00  0.00000000000E+00  0.49133737650E+02  0.49133737650E+02  0.00000000000E+00 0.  1.
         22   -1    0    0    0    0 -0.00000000000E+00 -0.00000000000E+00 -0.47927709262E+03  0.47927709262E+03  0.00000000000E+00 0.  1.
         24    1    1    2    0    0  0.12497367843E+02 -0.53478534023E+02 -0.10882225282E+02  0.97988655393E+02  0.80419002446E+02 0.  1.
        -24    1    1    2    0    0 -0.12497367843E+02  0.53478534023E+02 -0.41926112969E+03  0.43042217487E+03  0.80419002446E+02 0.  1.
<mgrwt>
<rscale>  0 0.97382513E+02</rscale>
<asrwt>0</asrwt>
<pdfrwt beam="1">  1       22 0.98267402E+00 0.97382513E+02</pdfrwt>
<pdfrwt beam="2">0</pdfrwt>
<totfact> 0.21376633E-02</totfact>
</mgrwt>
</event>
<event>
 4    1  0.8963905E-004  0.1488085E+03  0.7546771E-02  0.1098967E+00
         22   -1    0    0    0    0  0.00000000000E+00  0.00000000000E+00  0.18451307324E+02  0.18451307324E+02  0.00000000000E+00 0. -1.
         22   -1    0    0    0    0 -0.00000000000E+00 -0.00000000000E+00 -0.18561509794E+04  0.18561509794E+04  0.00000000000E+00 0. -1.
         24    1    1    2    0    0  0.11212479501E+03  0.55720693698E+02 -0.36162416886E+03  0.39104478109E+03  0.80419002446E+02 0. -1.
        -24    1    1    2    0    0 -0.11212479501E+03 -0.55720693698E+02 -0.14760755032E+04  0.14835575056E+04  0.80419002446E+02 0. -1.
<mgrwt>
<rscale>  0 0.14880854E+03</rscale>
<asrwt>0</asrwt>
<pdfrwt beam="1">  1       22 0.36904133E+00 0.14880854E+03</pdfrwt>
<pdfrwt beam="2">0</pdfrwt>
<totfact> 0.57617549E-03</totfact>
</mgrwt>
</event>
<event>
 4    1  0.8963905E-004  0.1126198E+03  0.7546771E-02  0.1143621E+00
         22   -1    0    0    0    0  0.00000000000E+00  0.00000000000E+00  0.13155921926E+02  0.13155921926E+02  0.00000000000E+00 0. -1.
         22   -1    0    0    0    0 -0.00000000000E+00 -0.00000000000E+00 -0.96444693587E+03  0.96444693587E+03  0.00000000000E+00 0. -1.
         24    1    1    2    0    0  0.44594572113E+02 -0.65017925923E+02 -0.48531579921E+03  0.49821144855E+03  0.80419002446E+02 0. -1.
        -24    1    1    2    0    0 -0.44594572113E+02  0.65017925923E+02 -0.46597521474E+03  0.47939140924E+03  0.80419002446E+02 0. -1.
<mgrwt>
<rscale>  0 0.11261981E+03</rscale>
<asrwt>0</asrwt>
<pdfrwt beam="1">  1       22 0.26312053E+00 0.11261981E+03</pdfrwt>
<pdfrwt beam="2">0</pdfrwt>
<totfact> 0.42225391E-02</totfact>
</mgrwt>
</event>
<event>
 4    1  0.8963905E-004  0.8209215E+02  0.7546771E-02  0.1199007E+00
         22   -1    0    0    0    0  0.00000000000E+00  0.00000000000E+00  0.17874067849E+02  0.17874067849E+02  0.00000000000E+00 0.  1.
         22   -1    0    0    0    0 -0.00000000000E+00 -0.00000000000E+00 -0.37952187155E+03  0.37952187155E+03  0.00000000000E+00 0. -1.
         24    1    1    2    0    0  0.16460183391E+02  0.98356913043E+00 -0.16473452288E+03  0.18405592636E+03  0.80419002446E+02 0.  0.
        -24    1    1    2    0    0 -0.16460183391E+02 -0.98356913043E+00 -0.19691328082E+03  0.21334001304E+03  0.80419002446E+02 0.  0.
<mgrwt>
<rscale>  0 0.82092149E+02</rscale>
<asrwt>0</asrwt>
<pdfrwt beam="1">  1       22 0.35747372E+00 0.82092149E+02</pdfrwt>
<pdfrwt beam="2">0</pdfrwt>
<totfact> 0.14955526E-01</totfact>
</mgrwt>
</event>
<event>
 4    1  0.8963905E-004  0.8121250E+02  0.7546771E-02  0.1200991E+00
         22   -1    0    0    0    0  0.00000000000E+00  0.00000000000E+00  0.26201433841E+02  0.26201433841E+02  0.00000000000E+00 0.  1.
         22   -1    0    0    0    0 -0.00000000000E+00 -0.00000000000E+00 -0.75381301952E+03  0.75381301952E+03  0.00000000000E+00 0.  1.
         24    1    1    2    0    0 -0.36445700314E+01 -0.10722443281E+02 -0.68210253324E+03  0.68692018131E+03  0.80419002446E+02 0.  1.
        -24    1    1    2    0    0  0.36445700314E+01  0.10722443281E+02 -0.45509052437E+02  0.93094272051E+02  0.80419002446E+02 0.  1.
<mgrwt>
<rscale>  0 0.81212497E+02</rscale>
<asrwt>0</asrwt>
<pdfrwt beam="1">  1       22 0.52401821E+00 0.81212497E+02</pdfrwt>
<pdfrwt beam="2">0</pdfrwt>
<totfact> 0.25212028E-02</totfact>
</mgrwt>
</event>
<event>
 4    1  0.8963905E-004  0.8749088E+02  0.7546771E-02  0.1187412E+00
         22   -1    0    0    0    0  0.00000000000E+00  0.00000000000E+00  0.21407031981E+02  0.21407031981E+02  0.00000000000E+00 0. -1.
         22   -1    0    0    0    0 -0.00000000000E+00 -0.00000000000E+00 -0.53236327278E+03  0.53236327278E+03  0.00000000000E+00 0. -1.
         24    1    1    2    0    0 -0.34288063619E+02  0.34302830055E+01 -0.96824583018E+02  0.13049771638E+03  0.80419002446E+02 0. -1.
        -24    1    1    2    0    0  0.34288063619E+02 -0.34302830055E+01 -0.41413165778E+03  0.42327258839E+03  0.80419002446E+02 0. -1.
<mgrwt>
<rscale>  0 0.87490880E+02</rscale>
<asrwt>0</asrwt>
<pdfrwt beam="1">  1       22 0.42814515E+00 0.87490880E+02</pdfrwt>
<pdfrwt beam="2">0</pdfrwt>
<totfact> 0.65210942E-02</totfact>
</mgrwt>
</event>
<event>
 4    1  0.8963905E-004  0.8746682E+02  0.7546771E-02  0.1187462E+00
         22   -1    0    0    0    0  0.00000000000E+00  0.00000000000E+00  0.41069917370E+02  0.41069917370E+02  0.00000000000E+00 0. -1.
         22   -1    0    0    0    0 -0.00000000000E+00 -0.00000000000E+00 -0.67489569400E+03  0.67489569400E+03  0.00000000000E+00 0. -1.
         24    1    1    2    0    0  0.71226285389E+01 -0.33652586722E+02 -0.62151169126E+03  0.62763622168E+03  0.80419002446E+02 0. -1.
        -24    1    1    2    0    0 -0.71226285389E+01  0.33652586722E+02 -0.12314085365E+02  0.88329389691E+02  0.80419002446E+02 0. -1.
<mgrwt>
<rscale>  0 0.87466819E+02</rscale>
<asrwt>0</asrwt>
<pdfrwt beam="1">  1       22 0.82140829E+00 0.87466819E+02</pdfrwt>
<pdfrwt beam="2">0</pdfrwt>
<totfact> 0.15791219E-02</totfact>
</mgrwt>
</event>
<event>
 4    1  0.8963905E-004  0.8925924E+02  0.7546771E-02  0.1183817E+00
         22   -1    0    0    0    0  0.00000000000E+00  0.00000000000E+00  0.11206964754E+02  0.11206964754E+02  0.00000000000E+00 0.  1.
         22   -1    0    0    0    0 -0.00000000000E+00 -0.00000000000E+00 -0.78697070100E+03  0.78697070100E+03  0.00000000000E+00 0. -1.
         24    1    1    2    0    0  0.38547295382E+02 -0.37553112515E+01 -0.51194789695E+03  0.51967091653E+03  0.80419002446E+02 0. -1.
        -24    1    1    2    0    0 -0.38547295382E+02  0.37553112515E+01 -0.26381583930E+03  0.27850674922E+03  0.80419002446E+02 0.  1.
<mgrwt>
<rscale>  0 0.89259242E+02</rscale>
<asrwt>0</asrwt>
<pdfrwt beam="1">  1       22 0.22412271E+00 0.89259242E+02</pdfrwt>
<pdfrwt beam="2">0</pdfrwt>
<totfact> 0.77306193E-02</totfact>
</mgrwt>
</event>
<event>
 4    1  0.1308216E-003  0.9957003E+02  0.7546771E-02  0.1164561E+00
         22   -1    0    0    0    0  0.00000000000E+00  0.00000000000E+00  0.44396120613E+02  0.44396120613E+02  0.00000000000E+00 0.  1.
         22   -1    0    0    0    0 -0.00000000000E+00 -0.00000000000E+00 -0.10242421363E+04  0.10242421363E+04  0.00000000000E+00 0. -1.
         24    1    1    2    0    0 -0.32306447888E+02 -0.49023149237E+02 -0.96241743288E+03  0.96755439475E+03  0.80419002446E+02 0. -1.
        -24    1    1    2    0    0  0.32306447888E+02  0.49023149237E+02 -0.17428582806E+02  0.10108386216E+03  0.80419002446E+02 0.  1.
<mgrwt>
<rscale>  0 0.99570034E+02</rscale>
<asrwt>0</asrwt>
<pdfrwt beam="1">  1       22 0.88792427E+00 0.99570034E+02</pdfrwt>
<pdfrwt beam="2">0</pdfrwt>
<totfact> 0.61695912E-03</totfact>
</mgrwt>
</event>
<event>
 4    1  0.8963905E-004  0.9081938E+02  0.7546771E-02  0.1180721E+00
         22   -1    0    0    0    0  0.00000000000E+00  0.00000000000E+00  0.17982886210E+02  0.17982886210E+02  0.00000000000E+00 0. -1.
         22   -1    0    0    0    0 -0.00000000000E+00 -0.00000000000E+00 -0.64065434115E+03  0.64065434115E+03  0.00000000000E+00 0.  1.
         24    1    1    2    0    0 -0.48942373488E+01 -0.41916474461E+02 -0.13581648951E+03  0.16338383999E+03  0.80419002446E+02 0. -1.
        -24    1    1    2    0    0  0.48942373488E+01  0.41916474461E+02 -0.48685496542E+03  0.49525338737E+03  0.80419002446E+02 0.  1.
<mgrwt>
<rscale>  0 0.90819383E+02</rscale>
<asrwt>0</asrwt>
<pdfrwt beam="1">  1       22 0.35966923E+00 0.90819383E+02</pdfrwt>
<pdfrwt beam="2">0</pdfrwt>
<totfact> 0.60215119E-02</totfact>
</mgrwt>
</event>
<event>
 4    1  0.8963905E-004  0.1171465E+03  0.7546771E-02  0.1137081E+00
         22   -1    0    0    0    0  0.00000000000E+00  0.00000000000E+00  0.70216814639E+01  0.70216814639E+01  0.00000000000E+00 0.  1.
         22   -1    0    0    0    0 -0.00000000000E+00 -0.00000000000E+00 -0.20108857566E+04  0.20108857566E+04  0.00000000000E+00 0. -1.
         24    1    1    2    0    0 -0.77486645453E+02 -0.35382433579E+02 -0.11710038329E+04  0.11768488813E+04  0.80419002446E+02 0.  1.
        -24    1    1    2    0    0  0.77486645453E+02  0.35382433579E+02 -0.83286024221E+03  0.84105855672E+03  0.80419002446E+02 0.  1.
<mgrwt>
<rscale>  0 0.11714654E+03</rscale>
<asrwt>0</asrwt>
<pdfrwt beam="1">  1       22 0.14041367E+00 0.11714654E+03</pdfrwt>
<pdfrwt beam="2">0</pdfrwt>
<totfact> 0.16014344E-02</totfact>
</mgrwt>
</event>
<event>
 4    1  0.8963905E-004  0.8451168E+02  0.7546771E-02  0.1193690E+00
         22   -1    0    0    0    0  0.00000000000E+00  0.00000000000E+00  0.34548205711E+02  0.34548205711E+02  0.00000000000E+00 0. -1.
         22   -1    0    0    0    0 -0.00000000000E+00 -0.00000000000E+00 -0.20739714213E+03  0.20739714213E+03  0.00000000000E+00 0.  1.
         24    1    1    2    0    0 -0.21490057469E+02  0.14600880009E+02 -0.93274617607E+02  0.12586651068E+03  0.80419002446E+02 0. -1.
        -24    1    1    2    0    0  0.21490057469E+02 -0.14600880009E+02 -0.79574318808E+02  0.11607883716E+03  0.80419002446E+02 0.  0.
<mgrwt>
<rscale>  0 0.84511681E+02</rscale>
<asrwt>0</asrwt>
<pdfrwt beam="1">  1       22 0.69096362E+00 0.84511681E+02</pdfrwt>
<pdfrwt beam="2">0</pdfrwt>
<totfact> 0.14282401E-01</totfact>
</mgrwt>
</event>
<event>
 4    1  0.8963905E-004  0.8059664E+02  0.7546771E-02  0.1202397E+00
         22   -1    0    0    0    0  0.00000000000E+00  0.00000000000E+00  0.92168421901E+01  0.92168421901E+01  0.00000000000E+00 0.  1.
         22   -1    0    0    0    0 -0.00000000000E+00 -0.00000000000E+00 -0.73681236668E+03  0.73681236668E+03  0.00000000000E+00 0. -1.
         24    1    1    2    0    0  0.53244263915E+01  0.50308994833E+00 -0.44157671626E+03  0.44887171320E+03  0.80419002446E+02 0. -1.
        -24    1    1    2    0    0 -0.53244263915E+01 -0.50308994833E+00 -0.28601880823E+03  0.29715749567E+03  0.80419002446E+02 0.  1.
<mgrwt>
<rscale>  0 0.80596641E+02</rscale>
<asrwt>0</asrwt>
<pdfrwt beam="1">  1       22 0.18433075E+00 0.80596641E+02</pdfrwt>
<pdfrwt beam="2">0</pdfrwt>
<totfact> 0.11201477E-01</totfact>
</mgrwt>
</event>
<event>
 4    1  0.8963905E-004  0.8513115E+02  0.7546771E-02  0.1192361E+00
         22   -1    0    0    0    0  0.00000000000E+00  0.00000000000E+00  0.12032402604E+02  0.12032402604E+02  0.00000000000E+00 0. -1.
         22   -1    0    0    0    0 -0.00000000000E+00 -0.00000000000E+00 -0.63032099576E+03  0.63032099576E+03  0.00000000000E+00 0.  1.
         24    1    1    2    0    0  0.27664612493E+02 -0.38426706772E+01 -0.24144593461E+03  0.25601455465E+03  0.80419002446E+02 0.  1.
        -24    1    1    2    0    0 -0.27664612493E+02  0.38426706772E+01 -0.37684265855E+03  0.38633884371E+03  0.80419002446E+02 0.  0.
<mgrwt>
<rscale>  0 0.85131151E+02</rscale>
<asrwt>0</asrwt>
<pdfrwt beam="1">  1       22 0.24064629E+00 0.85131151E+02</pdfrwt>
<pdfrwt beam="2">0</pdfrwt>
<totfact> 0.10698402E-01</totfact>
</mgrwt>
</event>
<event>
 4    1  0.8963905E-004  0.8981368E+02  0.7546771E-02  0.1182709E+00
         22   -1    0    0    0    0  0.00000000000E+00  0.00000000000E+00  0.32959861124E+02  0.32959861124E+02  0.00000000000E+00 0. -1.
         22   -1    0    0    0    0 -0.00000000000E+00 -0.00000000000E+00 -0.35786170161E+03  0.35786170161E+03  0.00000000000E+00 0. -1.
         24    1    1    2    0    0  0.34667186574E+02 -0.19936601295E+02 -0.52583326042E+02  0.10407451190E+03  0.80419002446E+02 0. -1.
        -24    1    1    2    0    0 -0.34667186574E+02  0.19936601295E+02 -0.27231851444E+03  0.28674705083E+03  0.80419002446E+02 0. -1.
<mgrwt>
<rscale>  0 0.89813684E+02</rscale>
<asrwt>0</asrwt>
<pdfrwt beam="1">  1       22 0.65921061E+00 0.89813684E+02</pdfrwt>
<pdfrwt beam="2">0</pdfrwt>
<totfact> 0.66560918E-02</totfact>
</mgrwt>
</event>
<event>
 4    1  0.8963905E-004  0.1192974E+03  0.7546771E-02  0.1134088E+00
         22   -1    0    0    0    0  0.00000000000E+00  0.00000000000E+00  0.18191797895E+02  0.18191797895E+02  0.00000000000E+00 0. -1.
         22   -1    0    0    0    0 -0.00000000000E+00 -0.00000000000E+00 -0.10832050910E+04  0.10832050910E+04  0.00000000000E+00 0.  1.
         24    1    1    2    0    0  0.28884577316E+02 -0.83248591102E+02 -0.82274622987E+03  0.83135023994E+03  0.80419002446E+02 0.  1.
        -24    1    1    2    0    0 -0.28884577316E+02  0.83248591102E+02 -0.24226706320E+03  0.27004664892E+03  0.80419002446E+02 0.  0.
<mgrwt>
<rscale>  0 0.11929737E+03</rscale>
<asrwt>0</asrwt>
<pdfrwt beam="1">  1       22 0.36386503E+00 0.11929737E+03</pdfrwt>
<pdfrwt beam="2">0</pdfrwt>
<totfact> 0.21193648E-02</totfact>
</mgrwt>
</event>
<event>
 4    1  0.8963905E-004  0.8198193E+02  0.7546771E-02  0.1199254E+00
         22   -1    0    0    0    0  0.00000000000E+00  0.00000000000E+00  0.32992722970E+01  0.32992722970E+01  0.00000000000E+00 0.  1.
         22   -1    0    0    0    0 -0.00000000000E+00 -0.00000000000E+00 -0.36632715655E+04  0.36632715655E+04  0.00000000000E+00 0.  1.
         24    1    1    2    0    0  0.31625386927E+01  0.15614727774E+02 -0.30514344102E+04  0.30525355030E+04  0.80419002446E+02 0.  1.
        -24    1    1    2    0    0 -0.31625386927E+01 -0.15614727774E+02 -0.60853788305E+03  0.61403533484E+03  0.80419002446E+02 0.  1.
<mgrwt>
<rscale>  0 0.81981933E+02</rscale>
<asrwt>0</asrwt>
<pdfrwt beam="1">  1       22 0.66048294E-01 0.81981933E+02</pdfrwt>
<pdfrwt beam="2">0</pdfrwt>
<totfact> 0.33801944E-03</totfact>
</mgrwt>
</event>
<event>
 4    1  0.8963905E-004  0.1832880E+03  0.7546771E-02  0.1067829E+00
         22   -1    0    0    0    0  0.00000000000E+00  0.00000000000E+00  0.22458383373E+02  0.22458383373E+02  0.00000000000E+00 0. -1.
         22   -1    0    0    0    0 -0.00000000000E+00 -0.00000000000E+00 -0.30715223753E+04  0.30715223753E+04  0.00000000000E+00 0. -1.
         24    1    1    2    0    0  0.88808243555E+02  0.13870960524E+03 -0.26325405326E+04  0.26389134375E+04  0.80419002446E+02 0. -1.
        -24    1    1    2    0    0 -0.88808243555E+02 -0.13870960524E+03 -0.41652345936E+03  0.45506732124E+03  0.80419002446E+02 0. -1.
<mgrwt>
<rscale>  0 0.18328796E+03</rscale>
<asrwt>0</asrwt>
<pdfrwt beam="1">  1       22 0.44913354E+00 0.18328796E+03</pdfrwt>
<pdfrwt beam="2">0</pdfrwt>
<totfact> 0.78638439E-04</totfact>
</mgrwt>
</event>
<event>
 4    1  0.8963905E-004  0.8610182E+02  0.7546771E-02  0.1190304E+00
         22   -1    0    0    0    0  0.00000000000E+00  0.00000000000E+00  0.19127006288E+02  0.19127006288E+02  0.00000000000E+00 0.  1.
         22   -1    0    0    0    0 -0.00000000000E+00 -0.00000000000E+00 -0.90695555009E+03  0.90695555009E+03  0.00000000000E+00 0.  1.
         24    1    1    2    0    0 -0.26676486415E+02 -0.15319001764E+02 -0.79431208691E+03  0.79896508942E+03  0.80419002446E+02 0.  1.
        -24    1    1    2    0    0  0.26676486415E+02  0.15319001764E+02 -0.93516456895E+02  0.12711746696E+03  0.80419002446E+02 0.  1.
<mgrwt>
<rscale>  0 0.86101816E+02</rscale>
<asrwt>0</asrwt>
<pdfrwt beam="1">  1       22 0.38255700E+00 0.86101816E+02</pdfrwt>
<pdfrwt beam="2">0</pdfrwt>
<totfact> 0.27929141E-02</totfact>
</mgrwt>
</event>
<event>
 4    1  0.8963905E-004  0.1031174E+03  0.7546771E-02  0.1158529E+00
         22   -1    0    0    0    0  0.00000000000E+00  0.00000000000E+00  0.38616729696E+02  0.38616729696E+02  0.00000000000E+00 0. -1.
         22   -1    0    0    0    0 -0.00000000000E+00 -0.00000000000E+00 -0.29313598345E+03  0.29313598345E+03  0.00000000000E+00 0. -1.
         24    1    1    2    0    0 -0.63748266775E+02  0.10106804050E+02 -0.16811610256E+03  0.19722126888E+03  0.80419002446E+02 0. -1.
        -24    1    1    2    0    0  0.63748266775E+02 -0.10106804050E+02 -0.86403151188E+02  0.13453144426E+03  0.80419002446E+02 0. -1.
<mgrwt>
<rscale>  0 0.10311743E+03</rscale>
<asrwt>0</asrwt>
<pdfrwt beam="1">  1       22 0.77233873E+00 0.10311743E+03</pdfrwt>
<pdfrwt beam="2">0</pdfrwt>
<totfact> 0.72641453E-02</totfact>
</mgrwt>
</event>
<event>
 4    1  0.8963905E-004  0.8330510E+02  0.7546771E-02  0.1196316E+00
         22   -1    0    0    0    0  0.00000000000E+00  0.00000000000E+00  0.33907760727E+01  0.33907760727E+01  0.00000000000E+00 0.  1.
         22   -1    0    0    0    0 -0.00000000000E+00 -0.00000000000E+00 -0.21717013355E+04  0.21717013355E+04  0.00000000000E+00 0.  1.
         24    1    1    2    0    0 -0.20228578268E+02 -0.79578626272E+01 -0.82318673770E+03  0.82739116749E+03  0.80419002446E+02 0.  1.
        -24    1    1    2    0    0  0.20228578268E+02  0.79578626272E+01 -0.13451238217E+04  0.13477009441E+04  0.80419002446E+02 0.  1.
<mgrwt>
<rscale>  0 0.83305095E+02</rscale>
<asrwt>0</asrwt>
<pdfrwt beam="1">  1       22 0.67723908E-01 0.83305095E+02</pdfrwt>
<pdfrwt beam="2">0</pdfrwt>
<totfact> 0.29182533E-02</totfact>
</mgrwt>
</event>
<event>
 4    1  0.8963905E-004  0.1232864E+03  0.7546771E-02  0.1128718E+00
         22   -1    0    0    0    0  0.00000000000E+00  0.00000000000E+00  0.19666672615E+02  0.19666672615E+02  0.00000000000E+00 0.  1.
         22   -1    0    0    0    0 -0.00000000000E+00 -0.00000000000E+00 -0.24851682275E+04  0.24851682275E+04  0.00000000000E+00 0.  1.
         24    1    1    2    0    0  0.63290724218E+02 -0.68750258445E+02 -0.22723418445E+04  0.22756838507E+04  0.80419002446E+02 0.  1.
        -24    1    1    2    0    0 -0.63290724218E+02  0.68750258445E+02 -0.19315971038E+03  0.22915104947E+03  0.80419002446E+02 0.  1.
<mgrwt>
<rscale>  0 0.12328637E+03</rscale>
<asrwt>0</asrwt>
<pdfrwt beam="1">  1       22 0.39334032E+00 0.12328637E+03</pdfrwt>
<pdfrwt beam="2">0</pdfrwt>
<totfact> 0.21284269E-03</totfact>
</mgrwt>
</event>
<event>
 4    1  0.8963905E-004  0.9584335E+02  0.7546771E-02  0.1171207E+00
         22   -1    0    0    0    0  0.00000000000E+00  0.00000000000E+00  0.26777326601E+02  0.26777326601E+02  0.00000000000E+00 0.  1.
         22   -1    0    0    0    0 -0.00000000000E+00 -0.00000000000E+00 -0.89895773921E+03  0.89895773921E+03  0.00000000000E+00 0. -1.
         24    1    1    2    0    0 -0.52138480836E+02  0.55778101946E+00 -0.72100887024E+02  0.11993534161E+03  0.80419002446E+02 0.  1.
        -24    1    1    2    0    0  0.52138480836E+02 -0.55778101946E+00 -0.80007952558E+03  0.80579972420E+03  0.80419002446E+02 0. -1.
<mgrwt>
<rscale>  0 0.95843353E+02</rscale>
<asrwt>0</asrwt>
<pdfrwt beam="1">  1       22 0.53553935E+00 0.95843353E+02</pdfrwt>
<pdfrwt beam="2">0</pdfrwt>
<totfact> 0.17433358E-02</totfact>
</mgrwt>
</event>
<event>
 4    1  0.8963905E-004  0.8276899E+02  0.7546771E-02  0.1197499E+00
         22   -1    0    0    0    0  0.00000000000E+00  0.00000000000E+00  0.36654343317E+02  0.36654343317E+02  0.00000000000E+00 0. -1.
         22   -1    0    0    0    0 -0.00000000000E+00 -0.00000000000E+00 -0.40456012029E+03  0.40456012029E+03  0.00000000000E+00 0. -1.
         24    1    1    2    0    0 -0.19517625055E+02  0.15974703506E+01 -0.34576737650E+03  0.35553591128E+03  0.80419002446E+02 0. -1.
        -24    1    1    2    0    0  0.19517625055E+02 -0.15974703506E+01 -0.22138400466E+02  0.85678552327E+02  0.80419002446E+02 0. -1.
<mgrwt>
<rscale>  0 0.82768989E+02</rscale>
<asrwt>0</asrwt>
<pdfrwt beam="1">  1       22 0.73308549E+00 0.82768989E+02</pdfrwt>
<pdfrwt beam="2">0</pdfrwt>
<totfact> 0.45966418E-02</totfact>
</mgrwt>
</event>
<event>
 4    1  0.8963905E-004  0.8797090E+02  0.7546771E-02  0.1186427E+00
         22   -1    0    0    0    0  0.00000000000E+00  0.00000000000E+00  0.24343461575E+02  0.24343461575E+02  0.00000000000E+00 0. -1.
         22   -1    0    0    0    0 -0.00000000000E+00 -0.00000000000E+00 -0.78082034765E+03  0.78082034765E+03  0.00000000000E+00 0.  1.
         24    1    1    2    0    0  0.26298480171E+01  0.35563283552E+02 -0.68821584716E+03  0.69381548806E+03  0.80419002446E+02 0.  1.
        -24    1    1    2    0    0 -0.26298480171E+01 -0.35563283552E+02 -0.68261038911E+02  0.11134832116E+03  0.80419002446E+02 0. -1.
<mgrwt>
<rscale>  0 0.87970900E+02</rscale>
<asrwt>0</asrwt>
<pdfrwt beam="1">  1       22 0.48686976E+00 0.87970900E+02</pdfrwt>
<pdfrwt beam="2">0</pdfrwt>
<totfact> 0.26480036E-02</totfact>
</mgrwt>
</event>
<event>
 4    1  0.8963905E-004  0.1132186E+03  0.7546771E-02  0.1142736E+00
         22   -1    0    0    0    0  0.00000000000E+00  0.00000000000E+00  0.84781257306E+01  0.84781257306E+01  0.00000000000E+00 0.  1.
         22   -1    0    0    0    0 -0.00000000000E+00 -0.00000000000E+00 -0.20361998031E+04  0.20361998031E+04  0.00000000000E+00 0.  1.
         24    1    1    2    0    0 -0.18322746564E+02 -0.77559755617E+02 -0.15326085301E+04  0.15367847478E+04  0.80419002446E+02 0.  1.
        -24    1    1    2    0    0  0.18322746564E+02  0.77559755617E+02 -0.49511314724E+03  0.50789318095E+03  0.80419002446E+02 0.  1.
<mgrwt>
<rscale>  0 0.11321861E+03</rscale>
<asrwt>0</asrwt>
<pdfrwt beam="1">  1       22 0.16954402E+00 0.11321861E+03</pdfrwt>
<pdfrwt beam="2">0</pdfrwt>
<totfact> 0.12215788E-02</totfact>
</mgrwt>
</event>
<event>
 4    1  0.8963905E-004  0.8056506E+02  0.7546771E-02  0.1202469E+00
         22   -1    0    0    0    0  0.00000000000E+00  0.00000000000E+00  0.26618087481E+02  0.26618087481E+02  0.00000000000E+00 0.  1.
         22   -1    0    0    0    0 -0.00000000000E+00 -0.00000000000E+00 -0.30874329142E+03  0.30874329142E+03  0.00000000000E+00 0. -1.
         24    1    1    2    0    0  0.47422836594E+01  0.10118158830E+01 -0.21793947478E+03  0.23235391894E+03  0.80419002446E+02 0. -1.
        -24    1    1    2    0    0 -0.47422836594E+01 -0.10118158830E+01 -0.64185729163E+02  0.10300745996E+03  0.80419002446E+02 0.  1.
<mgrwt>
<rscale>  0 0.80565061E+02</rscale>
<asrwt>0</asrwt>
<pdfrwt beam="1">  1       22 0.53236546E+00 0.80565061E+02</pdfrwt>
<pdfrwt beam="2">0</pdfrwt>
<totfact> 0.11568714E-01</totfact>
</mgrwt>
</event>
<event>
 4    1  0.8963905E-004  0.1070144E+03  0.7546771E-02  0.1152207E+00
         22   -1    0    0    0    0  0.00000000000E+00  0.00000000000E+00  0.21254928956E+02  0.21254928956E+02  0.00000000000E+00 0. -1.
         22   -1    0    0    0    0 -0.00000000000E+00 -0.00000000000E+00 -0.57432486663E+03  0.57432486663E+03  0.00000000000E+00 0.  1.
         24    1    1    2    0    0  0.66561571733E+02  0.23546087860E+02 -0.20246877882E+03  0.22901022562E+03  0.80419002446E+02 0. -1.
        -24    1    1    2    0    0 -0.66561571733E+02 -0.23546087860E+02 -0.35060115885E+03  0.36656956997E+03  0.80419002446E+02 0.  1.
<mgrwt>
<rscale>  0 0.10701438E+03</rscale>
<asrwt>0</asrwt>
<pdfrwt beam="1">  1       22 0.42509998E+00 0.10701438E+03</pdfrwt>
<pdfrwt beam="2">0</pdfrwt>
<totfact> 0.58514569E-02</totfact>
</mgrwt>
</event>
<event>
 4    1  0.8963905E-004  0.8710510E+02  0.7546771E-02  0.1188209E+00
         22   -1    0    0    0    0  0.00000000000E+00  0.00000000000E+00  0.33427738657E+02  0.33427738657E+02  0.00000000000E+00 0.  1.
         22   -1    0    0    0    0 -0.00000000000E+00 -0.00000000000E+00 -0.25863747677E+03  0.25863747677E+03  0.00000000000E+00 0. -1.
         24    1    1    2    0    0  0.17100753683E+02  0.28768857697E+02 -0.16369873624E+03  0.18543078264E+03  0.80419002446E+02 0. -1.
        -24    1    1    2    0    0 -0.17100753683E+02 -0.28768857697E+02 -0.61511001869E+02  0.10663443278E+03  0.80419002446E+02 0.  1.
<mgrwt>
<rscale>  0 0.87105103E+02</rscale>
<asrwt>0</asrwt>
<pdfrwt beam="1">  1       22 0.66855872E+00 0.87105103E+02</pdfrwt>
<pdfrwt beam="2">0</pdfrwt>
<totfact> 0.10815770E-01</totfact>
</mgrwt>
</event>
<event>
 4    1  0.8963905E-004  0.1328810E+03  0.7546771E-02  0.1116672E+00
         22   -1    0    0    0    0  0.00000000000E+00  0.00000000000E+00  0.39139077597E+02  0.39139077597E+02  0.00000000000E+00 0. -1.
         22   -1    0    0    0    0 -0.00000000000E+00 -0.00000000000E+00 -0.36039346371E+04  0.36039346371E+04  0.00000000000E+00 0.  1.
         24    1    1    2    0    0 -0.92962313649E+02 -0.50479097891E+02 -0.34861133769E+04  0.34886449839E+04  0.80419002446E+02 0.  1.
        -24    1    1    2    0    0  0.92962313649E+02  0.50479097891E+02 -0.78682182593E+02  0.15442873079E+03  0.80419002446E+02 0. -1.
<mgrwt>
<rscale>  0 0.13288095E+03</rscale>
<asrwt>0</asrwt>
<pdfrwt beam="1">  1       22 0.78277436E+00 0.13288095E+03</pdfrwt>
<pdfrwt beam="2">0</pdfrwt>
<totfact> 0.14497712E-04</totfact>
</mgrwt>
</event>
<event>
 4    1  0.8963905E-004  0.9912868E+02  0.7546771E-02  0.1165331E+00
         22   -1    0    0    0    0  0.00000000000E+00  0.00000000000E+00  0.37298034924E+02  0.37298034924E+02  0.00000000000E+00 0. -1.
         22   -1    0    0    0    0 -0.00000000000E+00 -0.00000000000E+00 -0.36173441985E+03  0.36173441985E+03  0.00000000000E+00 0. -1.
         24    1    1    2    0    0 -0.50513785474E+02 -0.28418956672E+02 -0.26621169355E+03  0.28406893768E+03  0.80419002446E+02 0. -1.
        -24    1    1    2    0    0  0.50513785474E+02  0.28418956672E+02 -0.58224691379E+02  0.11496351709E+03  0.80419002446E+02 0. -1.
<mgrwt>
<rscale>  0 0.99128682E+02</rscale>
<asrwt>0</asrwt>
<pdfrwt beam="1">  1       22 0.74596196E+00 0.99128682E+02</pdfrwt>
<pdfrwt beam="2">0</pdfrwt>
<totfact> 0.54632316E-02</totfact>
</mgrwt>
</event>
<event>
 4    1  0.8963905E-004  0.8329543E+02  0.7546771E-02  0.1196337E+00
         22   -1    0    0    0    0  0.00000000000E+00  0.00000000000E+00  0.15058825855E+02  0.15058825855E+02  0.00000000000E+00 0. -1.
         22   -1    0    0    0    0 -0.00000000000E+00 -0.00000000000E+00 -0.50645971115E+03  0.50645971115E+03  0.00000000000E+00 0.  1.
         24    1    1    2    0    0  0.36606086733E+01  0.21389530401E+02 -0.16734975320E+03  0.18693332479E+03  0.80419002446E+02 0. -1.
        -24    1    1    2    0    0 -0.36606086733E+01 -0.21389530401E+02 -0.32405113210E+03  0.33458521222E+03  0.80419002446E+02 0.  1.
<mgrwt>
<rscale>  0 0.83295426E+02</rscale>
<asrwt>0</asrwt>
<pdfrwt beam="1">  1       22 0.30118133E+00 0.83295426E+02</pdfrwt>
<pdfrwt beam="2">0</pdfrwt>
<totfact> 0.11687349E-01</totfact>
</mgrwt>
</event>
<event>
 4    1  0.8963905E-004  0.1622232E+03  0.7546771E-02  0.1085849E+00
         22   -1    0    0    0    0  0.00000000000E+00  0.00000000000E+00  0.37976434654E+02  0.37976434654E+02  0.00000000000E+00 0.  1.
         22   -1    0    0    0    0 -0.00000000000E+00 -0.00000000000E+00 -0.77419179656E+03  0.77419179656E+03  0.00000000000E+00 0. -1.
         24    1    1    2    0    0 -0.14023750855E+03  0.13512662776E+02 -0.23657323571E+03  0.28685059294E+03  0.80419002446E+02 0.  0.
        -24    1    1    2    0    0  0.14023750855E+03 -0.13512662776E+02 -0.49964212619E+03  0.52531763827E+03  0.80419002446E+02 0. -1.
<mgrwt>
<rscale>  0 0.16222320E+03</rscale>
<asrwt>0</asrwt>
<pdfrwt beam="1">  1       22 0.75952667E+00 0.16222320E+03</pdfrwt>
<pdfrwt beam="2">0</pdfrwt>
<totfact> 0.14412451E-02</totfact>
</mgrwt>
</event>
<event>
 4    1  0.8963905E-004  0.1069460E+03  0.7546771E-02  0.1152316E+00
         22   -1    0    0    0    0  0.00000000000E+00  0.00000000000E+00  0.23251607029E+02  0.23251607029E+02  0.00000000000E+00 0.  1.
         22   -1    0    0    0    0 -0.00000000000E+00 -0.00000000000E+00 -0.23406249392E+04  0.23406249392E+04  0.00000000000E+00 0.  1.
         24    1    1    2    0    0 -0.28983359839E+02  0.64266541632E+02 -0.22091119419E+04  0.22116991231E+04  0.80419002446E+02 0.  1.
        -24    1    1    2    0    0  0.28983359839E+02 -0.64266541632E+02 -0.10826139029E+03  0.15217742311E+03  0.80419002446E+02 0.  1.
<mgrwt>
<rscale>  0 0.10694597E+03</rscale>
<asrwt>0</asrwt>
<pdfrwt beam="1">  1       22 0.46502498E+00 0.10694597E+03</pdfrwt>
<pdfrwt beam="2">0</pdfrwt>
<totfact> 0.20125795E-03</totfact>
</mgrwt>
</event>
<event>
 4    1  0.8963905E-004  0.9664242E+02  0.7546771E-02  0.1169754E+00
         22   -1    0    0    0    0  0.00000000000E+00  0.00000000000E+00  0.22273272662E+01  0.22273272662E+01  0.00000000000E+00 0. -1.
         22   -1    0    0    0    0 -0.00000000000E+00 -0.00000000000E+00 -0.43355857861E+04  0.43355857861E+04  0.00000000000E+00 0.  1.
         24    1    1    2    0    0  0.38769673960E+02 -0.37006136350E+02 -0.25596515103E+04  0.25614752804E+04  0.80419002446E+02 0.  1.
        -24    1    1    2    0    0 -0.38769673960E+02  0.37006136350E+02 -0.17737069485E+04  0.17763378330E+04  0.80419002446E+02 0.  0.
<mgrwt>
<rscale>  0 0.96642422E+02</rscale>
<asrwt>0</asrwt>
<pdfrwt beam="1">  1       22 0.44624861E-01 0.96642422E+02</pdfrwt>
<pdfrwt beam="2">0</pdfrwt>
<totfact> 0.15681616E-03</totfact>
</mgrwt>
</event>
<event>
 4    1  0.8963905E-004  0.9139666E+02  0.7546771E-02  0.1179593E+00
         22   -1    0    0    0    0  0.00000000000E+00  0.00000000000E+00  0.14660419274E+02  0.14660419274E+02  0.00000000000E+00 0. -1.
         22   -1    0    0    0    0 -0.00000000000E+00 -0.00000000000E+00 -0.58702681397E+03  0.58702681397E+03  0.00000000000E+00 0. -1.
         24    1    1    2    0    0  0.35575149010E+02  0.24910699861E+02 -0.23463077823E+03  0.25180339998E+03  0.80419002446E+02 0.  1.
        -24    1    1    2    0    0 -0.35575149010E+02 -0.24910699861E+02 -0.33773561647E+03  0.34988383327E+03  0.80419002446E+02 0.  1.
<mgrwt>
<rscale>  0 0.91396664E+02</rscale>
<asrwt>0</asrwt>
<pdfrwt beam="1">  1       22 0.29320681E+00 0.91396664E+02</pdfrwt>
<pdfrwt beam="2">0</pdfrwt>
<totfact> 0.93972763E-02</totfact>
</mgrwt>
</event>
<event>
 4    1  0.8963905E-004  0.8064483E+02  0.7546771E-02  0.1202286E+00
         22   -1    0    0    0    0  0.00000000000E+00  0.00000000000E+00  0.12750740879E+02  0.12750740879E+02  0.00000000000E+00 0.  1.
         22   -1    0    0    0    0 -0.00000000000E+00 -0.00000000000E+00 -0.55197535319E+03  0.55197535319E+03  0.00000000000E+00 0.  1.
         24    1    1    2    0    0 -0.54632170184E+01  0.25547153265E+01 -0.19179855180E+03  0.20806314844E+03  0.80419002446E+02 0.  0.
        -24    1    1    2    0    0  0.54632170184E+01 -0.25547153265E+01 -0.34742606051E+03  0.35666294563E+03  0.80419002446E+02 0.  0.
<mgrwt>
<rscale>  0 0.80644834E+02</rscale>
<asrwt>0</asrwt>
<pdfrwt beam="1">  1       22 0.25501756E+00 0.80644834E+02</pdfrwt>
<pdfrwt beam="2">0</pdfrwt>
<totfact> 0.12545992E-01</totfact>
</mgrwt>
</event>
<event>
 4    1  0.8963905E-004  0.9978301E+02  0.7546771E-02  0.1164191E+00
         22   -1    0    0    0    0  0.00000000000E+00  0.00000000000E+00  0.16766656995E+02  0.16766656995E+02  0.00000000000E+00 0.  1.
         22   -1    0    0    0    0 -0.00000000000E+00 -0.00000000000E+00 -0.59904495203E+03  0.59904495203E+03  0.00000000000E+00 0. -1.
         24    1    1    2    0    0  0.99058881717E+01  0.58234923749E+02 -0.26242787644E+03  0.28075797273E+03  0.80419002446E+02 0. -1.
        -24    1    1    2    0    0 -0.99058881717E+01 -0.58234923749E+02 -0.31985041859E+03  0.33505363629E+03  0.80419002446E+02 0.  0.
<mgrwt>
<rscale>  0 0.99783009E+02</rscale>
<asrwt>0</asrwt>
<pdfrwt beam="1">  1       22 0.33533654E+00 0.99783009E+02</pdfrwt>
<pdfrwt beam="2">0</pdfrwt>
<totfact> 0.75750135E-02</totfact>
</mgrwt>
</event>
<event>
 4    1  0.8963905E-004  0.9417628E+02  0.7546771E-02  0.1174291E+00
         22   -1    0    0    0    0  0.00000000000E+00  0.00000000000E+00  0.17425909506E+02  0.17425909506E+02  0.00000000000E+00 0. -1.
         22   -1    0    0    0    0 -0.00000000000E+00 -0.00000000000E+00 -0.23912510951E+04  0.23912510951E+04  0.00000000000E+00 0. -1.
         24    1    1    2    0    0 -0.34653536077E+02 -0.34656707448E+02 -0.11840196995E+03  0.15128845751E+03  0.80419002446E+02 0. -1.
        -24    1    1    2    0    0  0.34653536077E+02  0.34656707448E+02 -0.22554232156E+04  0.22573885471E+04  0.80419002446E+02 0. -1.
<mgrwt>
<rscale>  0 0.94176276E+02</rscale>
<asrwt>0</asrwt>
<pdfrwt beam="1">  1       22 0.34847640E+00 0.94176276E+02</pdfrwt>
<pdfrwt beam="2">0</pdfrwt>
<totfact> 0.28205416E-03</totfact>
</mgrwt>
</event>
<event>
 4    1  0.8963905E-004  0.9977600E+02  0.7546771E-02  0.1164203E+00
         22   -1    0    0    0    0  0.00000000000E+00  0.00000000000E+00  0.29439295455E+02  0.29439295455E+02  0.00000000000E+00 0.  1.
         22   -1    0    0    0    0 -0.00000000000E+00 -0.00000000000E+00 -0.59754757118E+03  0.59754757118E+03  0.00000000000E+00 0. -1.
         24    1    1    2    0    0  0.10189090742E+02 -0.58174020269E+02 -0.49059935238E+03  0.50064256183E+03  0.80419002446E+02 0. -1.
        -24    1    1    2    0    0 -0.10189090742E+02  0.58174020269E+02 -0.77508923342E+02  0.12634430480E+03  0.80419002446E+02 0.  1.
<mgrwt>
<rscale>  0 0.99776000E+02</rscale>
<asrwt>0</asrwt>
<pdfrwt beam="1">  1       22 0.58878941E+00 0.99776000E+02</pdfrwt>
<pdfrwt beam="2">0</pdfrwt>
<totfact> 0.33208471E-02</totfact>
</mgrwt>
</event>
<event>
 4    1  0.8963905E-004  0.9704485E+02  0.7546771E-02  0.1169028E+00
         22   -1    0    0    0    0  0.00000000000E+00  0.00000000000E+00  0.25108297931E+02  0.25108297931E+02  0.00000000000E+00 0. -1.
         22   -1    0    0    0    0 -0.00000000000E+00 -0.00000000000E+00 -0.10764043221E+04  0.10764043221E+04  0.00000000000E+00 0.  1.
         24    1    1    2    0    0  0.39241552119E+02  0.37557788810E+02 -0.97020782226E+03  0.97504918914E+03  0.80419002446E+02 0.  1.
        -24    1    1    2    0    0 -0.39241552119E+02 -0.37557788810E+02 -0.81088201949E+02  0.12646343093E+03  0.80419002446E+02 0. -1.
<mgrwt>
<rscale>  0 0.97044850E+02</rscale>
<asrwt>0</asrwt>
<pdfrwt beam="1">  1       22 0.50218061E+00 0.97044850E+02</pdfrwt>
<pdfrwt beam="2">0</pdfrwt>
<totfact> 0.13176663E-02</totfact>
</mgrwt>
</event>
<event>
 4    1  0.8963905E-004  0.9263291E+02  0.7546771E-02  0.1177209E+00
         22   -1    0    0    0    0  0.00000000000E+00  0.00000000000E+00  0.25846785375E+02  0.25846785375E+02  0.00000000000E+00 0. -1.
         22   -1    0    0    0    0 -0.00000000000E+00 -0.00000000000E+00 -0.36495489778E+04  0.36495489778E+04  0.00000000000E+00 0. -1.
         24    1    1    2    0    0  0.33126975253E+02 -0.31878577699E+02 -0.59730928719E+02  0.11022086919E+03  0.80419002446E+02 0. -1.
        -24    1    1    2    0    0 -0.33126975253E+02  0.31878577699E+02 -0.35639712638E+04  0.35651748940E+04  0.80419002446E+02 0. -1.
<mgrwt>
<rscale>  0 0.92632911E+02</rscale>
<asrwt>0</asrwt>
<pdfrwt beam="1">  1       22 0.51696861E+00 0.92632911E+02</pdfrwt>
<pdfrwt beam="2">0</pdfrwt>
<totfact> 0.24538856E-04</totfact>
</mgrwt>
</event>
<event>
 4    1  0.8963905E-004  0.1215844E+03  0.7546771E-02  0.1130981E+00
         22   -1    0    0    0    0  0.00000000000E+00  0.00000000000E+00  0.32649938964E+02  0.32649938964E+02  0.00000000000E+00 0.  1.
         22   -1    0    0    0    0 -0.00000000000E+00 -0.00000000000E+00 -0.46150468961E+03  0.46150468961E+03  0.00000000000E+00 0. -1.
         24    1    1    2    0    0  0.13304173060E+02 -0.90213967738E+02 -0.24842683495E+03  0.27658392808E+03  0.80419002446E+02 0. -1.
        -24    1    1    2    0    0 -0.13304173060E+02  0.90213967738E+02 -0.18042791570E+03  0.21757070050E+03  0.80419002446E+02 0.  0.
<mgrwt>
<rscale>  0 0.12158444E+03</rscale>
<asrwt>0</asrwt>
<pdfrwt beam="1">  1       22 0.65300713E+00 0.12158444E+03</pdfrwt>
<pdfrwt beam="2">0</pdfrwt>
<totfact> 0.45413665E-02</totfact>
</mgrwt>
</event>
<event>
 4    1  0.8963905E-004  0.9563180E+02  0.7546771E-02  0.1171595E+00
         22   -1    0    0    0    0  0.00000000000E+00  0.00000000000E+00  0.30959219688E+02  0.30959219688E+02  0.00000000000E+00 0. -1.
         22   -1    0    0    0    0 -0.00000000000E+00 -0.00000000000E+00 -0.37298980397E+03  0.37298980397E+03  0.00000000000E+00 0.  1.
         24    1    1    2    0    0 -0.37936783263E+02 -0.35199804564E+02 -0.26313285490E+03  0.27997203619E+03  0.80419002446E+02 0.  1.
        -24    1    1    2    0    0  0.37936783263E+02  0.35199804564E+02 -0.78897729377E+02  0.12397698746E+03  0.80419002446E+02 0. -1.
<mgrwt>
<rscale>  0 0.95631803E+02</rscale>
<asrwt>0</asrwt>
<pdfrwt beam="1">  1       22 0.61918242E+00 0.95631803E+02</pdfrwt>
<pdfrwt beam="2">0</pdfrwt>
<totfact> 0.68863911E-02</totfact>
</mgrwt>
</event>
<event>
 4    1  0.8963905E-004  0.8133555E+02  0.7546771E-02  0.1200712E+00
         22   -1    0    0    0    0  0.00000000000E+00  0.00000000000E+00  0.39875857533E+02  0.39875857533E+02  0.00000000000E+00 0.  1.
         22   -1    0    0    0    0 -0.00000000000E+00 -0.00000000000E+00 -0.10922507385E+04  0.10922507385E+04  0.00000000000E+00 0.  1.
         24    1    1    2    0    0  0.92887993307E+01  0.78723447516E+01 -0.48833205637E+01  0.81482012610E+02  0.80419002446E+02 0.  1.
        -24    1    1    2    0    0 -0.92887993307E+01 -0.78723447516E+01 -0.10474915604E+04  0.10506445834E+04  0.80419002446E+02 0.  1.
<mgrwt>
<rscale>  0 0.81335549E+02</rscale>
<asrwt>0</asrwt>
<pdfrwt beam="1">  1       22 0.79753645E+00 0.81335549E+02</pdfrwt>
<pdfrwt beam="2">0</pdfrwt>
<totfact> 0.62153423E-03</totfact>
</mgrwt>
</event>
<event>
 4    1  0.8963905E-004  0.1162858E+03  0.7546771E-02  0.1138299E+00
         22   -1    0    0    0    0  0.00000000000E+00  0.00000000000E+00  0.19036467575E+02  0.19036467575E+02  0.00000000000E+00 0. -1.
         22   -1    0    0    0    0 -0.00000000000E+00 -0.00000000000E+00 -0.75381758024E+03  0.75381758024E+03  0.00000000000E+00 0. -1.
         24    1    1    2    0    0  0.81106285316E+02 -0.21838870459E+02 -0.27458745542E+03  0.29819566129E+03  0.80419002446E+02 0. -1.
        -24    1    1    2    0    0 -0.81106285316E+02  0.21838870459E+02 -0.46019365724E+03  0.47465838652E+03  0.80419002446E+02 0. -1.
<mgrwt>
<rscale>  0 0.11628578E+03</rscale>
<asrwt>0</asrwt>
<pdfrwt beam="1">  1       22 0.38071945E+00 0.11628578E+03</pdfrwt>
<pdfrwt beam="2">0</pdfrwt>
<totfact> 0.41617162E-02</totfact>
</mgrwt>
</event>
<event>
 4    1  0.8963905E-004  0.1043288E+03  0.7546771E-02  0.1156531E+00
         22   -1    0    0    0    0  0.00000000000E+00  0.00000000000E+00  0.24139715979E+02  0.24139715979E+02  0.00000000000E+00 0.  1.
         22   -1    0    0    0    0 -0.00000000000E+00 -0.00000000000E+00 -0.90374232053E+03  0.90374232053E+03  0.00000000000E+00 0.  1.
         24    1    1    2    0    0 -0.66189149644E+02 -0.60230982802E+01 -0.76821099469E+03  0.77526294220E+03  0.80419002446E+02 0.  1.
        -24    1    1    2    0    0  0.66189149644E+02  0.60230982802E+01 -0.11139160986E+03  0.15261909430E+03  0.80419002446E+02 0.  1.
<mgrwt>
<rscale>  0 0.10432879E+03</rscale>
<asrwt>0</asrwt>
<pdfrwt beam="1">  1       22 0.48278301E+00 0.10432879E+03</pdfrwt>
<pdfrwt beam="2">0</pdfrwt>
<totfact> 0.20303966E-02</totfact>
</mgrwt>
</event>
<event>
 4    1  0.8963905E-004  0.9917216E+02  0.7546771E-02  0.1165255E+00
         22   -1    0    0    0    0  0.00000000000E+00  0.00000000000E+00  0.32987206696E+02  0.32987206696E+02  0.00000000000E+00 0.  1.
         22   -1    0    0    0    0 -0.00000000000E+00 -0.00000000000E+00 -0.29819480034E+03  0.29819480034E+03  0.00000000000E+00 0. -1.
         24    1    1    2    0    0  0.52209287249E+02 -0.25339542063E+02 -0.13056202983E+03  0.16395597474E+03  0.80419002446E+02 0.  0.
        -24    1    1    2    0    0 -0.52209287249E+02  0.25339542063E+02 -0.13464556382E+03  0.16722603230E+03  0.80419002446E+02 0.  0.
<mgrwt>
<rscale>  0 0.99172164E+02</rscale>
<asrwt>0</asrwt>
<pdfrwt beam="1">  1       22 0.65974632E+00 0.99172164E+02</pdfrwt>
<pdfrwt beam="2">0</pdfrwt>
<totfact> 0.89592173E-02</totfact>
</mgrwt>
</event>
<event>
 4    1  0.8963905E-004  0.1118177E+03  0.7546771E-02  0.1144815E+00
         22   -1    0    0    0    0  0.00000000000E+00  0.00000000000E+00  0.30121009119E+02  0.30121009119E+02  0.00000000000E+00 0. -1.
         22   -1    0    0    0    0 -0.00000000000E+00 -0.00000000000E+00 -0.84108200122E+03  0.84108200122E+03  0.00000000000E+00 0.  1.
         24    1    1    2    0    0 -0.63991273978E+02 -0.44057876640E+02 -0.71548387251E+03  0.72416874236E+03  0.80419002446E+02 0.  1.
        -24    1    1    2    0    0  0.63991273978E+02  0.44057876640E+02 -0.95477119593E+02  0.14703426798E+03  0.80419002446E+02 0. -1.
<mgrwt>
<rscale>  0 0.11181769E+03</rscale>
<asrwt>0</asrwt>
<pdfrwt beam="1">  1       22 0.60242202E+00 0.11181769E+03</pdfrwt>
<pdfrwt beam="2">0</pdfrwt>
<totfact> 0.16883266E-02</totfact>
</mgrwt>
</event>
<event>
 4    1  0.8963905E-004  0.8826850E+02  0.7546771E-02  0.1185820E+00
         22   -1    0    0    0    0  0.00000000000E+00  0.00000000000E+00  0.45375184192E+02  0.45375184192E+02  0.00000000000E+00 0.  1.
         22   -1    0    0    0    0 -0.00000000000E+00 -0.00000000000E+00 -0.54211933301E+03  0.54211933301E+03  0.00000000000E+00 0. -1.
         24    1    1    2    0    0 -0.21494830458E+01 -0.36324805094E+02 -0.55613197685E+01  0.88443518555E+02  0.80419002446E+02 0.  1.
        -24    1    1    2    0    0  0.21494830458E+01  0.36324805094E+02 -0.49118282905E+03  0.49905099865E+03  0.80419002446E+02 0. -1.
<mgrwt>
<rscale>  0 0.88268498E+02</rscale>
<asrwt>0</asrwt>
<pdfrwt beam="1">  1       22 0.90750543E+00 0.88268498E+02</pdfrwt>
<pdfrwt beam="2">0</pdfrwt>
<totfact> 0.20201485E-02</totfact>
</mgrwt>
</event>
<event>
 4    1  0.8963905E-004  0.8574813E+02  0.7546771E-02  0.1191050E+00
         22   -1    0    0    0    0  0.00000000000E+00  0.00000000000E+00  0.45099006386E+02  0.45099006386E+02  0.00000000000E+00 0. -1.
         22   -1    0    0    0    0 -0.00000000000E+00 -0.00000000000E+00 -0.59092685169E+03  0.59092685169E+03  0.00000000000E+00 0. -1.
         24    1    1    2    0    0 -0.13951156406E+02 -0.26284800678E+02 -0.54352442146E+03  0.55024679753E+03  0.80419002446E+02 0. -1.
        -24    1    1    2    0    0  0.13951156406E+02  0.26284800678E+02 -0.23034238386E+01  0.85779060542E+02  0.80419002446E+02 0. -1.
<mgrwt>
<rscale>  0 0.85748128E+02</rscale>
<asrwt>0</asrwt>
<pdfrwt beam="1">  1       22 0.90197464E+00 0.85748128E+02</pdfrwt>
<pdfrwt beam="2">0</pdfrwt>
<totfact> 0.17434665E-02</totfact>
</mgrwt>
</event>
<event>
 4    1  0.8963905E-004  0.1452865E+03  0.7546771E-02  0.1102665E+00
         22   -1    0    0    0    0  0.00000000000E+00  0.00000000000E+00  0.27053086252E+02  0.27053086252E+02  0.00000000000E+00 0. -1.
         22   -1    0    0    0    0 -0.00000000000E+00 -0.00000000000E+00 -0.81337408187E+03  0.81337408187E+03  0.00000000000E+00 0. -1.
         24    1    1    2    0    0  0.58480918365E+02  0.10592896878E+03 -0.47796023576E+03  0.49955396822E+03  0.80419002446E+02 0. -1.
        -24    1    1    2    0    0 -0.58480918365E+02 -0.10592896878E+03 -0.30836075985E+03  0.34087319990E+03  0.80419002446E+02 0. -1.
<mgrwt>
<rscale>  0 0.14528655E+03</rscale>
<asrwt>0</asrwt>
<pdfrwt beam="1">  1       22 0.54106798E+00 0.14528655E+03</pdfrwt>
<pdfrwt beam="2">0</pdfrwt>
<totfact> 0.21714457E-02</totfact>
</mgrwt>
</event>
<event>
 4    1  0.8963905E-004  0.8224083E+02  0.7546771E-02  0.1198674E+00
         22   -1    0    0    0    0  0.00000000000E+00  0.00000000000E+00  0.36327055109E+01  0.36327055109E+01  0.00000000000E+00 0. -1.
         22   -1    0    0    0    0 -0.00000000000E+00 -0.00000000000E+00 -0.21680228834E+04  0.21680228834E+04  0.00000000000E+00 0.  1.
         24    1    1    2    0    0 -0.69073408939E+01 -0.15767913215E+02 -0.67414632704E+03  0.67914418547E+03  0.80419002446E+02 0. -1.
        -24    1    1    2    0    0  0.69073408939E+01  0.15767913215E+02 -0.14902438509E+04  0.14925114035E+04  0.80419002446E+02 0.  1.
<mgrwt>
<rscale>  0 0.82240832E+02</rscale>
<asrwt>0</asrwt>
<pdfrwt beam="1">  1       22 0.72656253E-01 0.82240832E+02</pdfrwt>
<pdfrwt beam="2">0</pdfrwt>
<totfact> 0.27158075E-02</totfact>
</mgrwt>
</event>
<event>
 4    1  0.8963905E-004  0.9011259E+02  0.7546771E-02  0.1182115E+00
         22   -1    0    0    0    0  0.00000000000E+00  0.00000000000E+00  0.28158817498E+02  0.28158817498E+02  0.00000000000E+00 0.  1.
         22   -1    0    0    0    0 -0.00000000000E+00 -0.00000000000E+00 -0.14699163516E+04  0.14699163516E+04  0.00000000000E+00 0.  1.
         24    1    1    2    0    0 -0.40623115459E+02  0.16808369840E+01 -0.13924342431E+04  0.13953470536E+04  0.80419002446E+02 0.  1.
        -24    1    1    2    0    0  0.40623115459E+02 -0.16808369840E+01 -0.49323291019E+02  0.10272811550E+03  0.80419002446E+02 0.  1.
<mgrwt>
<rscale>  0 0.90112589E+02</rscale>
<asrwt>0</asrwt>
<pdfrwt beam="1">  1       22 0.56320077E+00 0.90112589E+02</pdfrwt>
<pdfrwt beam="2">0</pdfrwt>
<totfact> 0.53943682E-03</totfact>
</mgrwt>
</event>
<event>
 4    1  0.8963905E-004  0.9305003E+02  0.7546771E-02  0.1176414E+00
         22   -1    0    0    0    0  0.00000000000E+00  0.00000000000E+00  0.19044039529E+02  0.19044039529E+02  0.00000000000E+00 0. -1.
         22   -1    0    0    0    0 -0.00000000000E+00 -0.00000000000E+00 -0.51809032065E+03  0.51809032065E+03  0.00000000000E+00 0.  1.
         24    1    1    2    0    0  0.44064946354E+02 -0.15791532860E+02 -0.34350510033E+03  0.35588489982E+03  0.80419002446E+02 0.  1.
        -24    1    1    2    0    0 -0.44064946354E+02  0.15791532860E+02 -0.15554118079E+03  0.18124946036E+03  0.80419002446E+02 0.  0.
<mgrwt>
<rscale>  0 0.93050029E+02</rscale>
<asrwt>0</asrwt>
<pdfrwt beam="1">  1       22 0.38088820E+00 0.93050029E+02</pdfrwt>
<pdfrwt beam="2">0</pdfrwt>
<totfact> 0.81480180E-02</totfact>
</mgrwt>
</event>
<event>
 4    1  0.8963905E-004  0.8161219E+02  0.7546771E-02  0.1200086E+00
         22   -1    0    0    0    0  0.00000000000E+00  0.00000000000E+00  0.19001796653E+02  0.19001796653E+02  0.00000000000E+00 0.  1.
         22   -1    0    0    0    0 -0.00000000000E+00 -0.00000000000E+00 -0.45060731278E+03  0.45060731278E+03  0.00000000000E+00 0. -1.
         24    1    1    2    0    0  0.58041692613E+01 -0.12635071074E+02 -0.10514231795E+03  0.13309942291E+03  0.80419002446E+02 0.  1.
        -24    1    1    2    0    0 -0.58041692613E+01  0.12635071074E+02 -0.32646319818E+03  0.33650968652E+03  0.80419002446E+02 0. -1.
<mgrwt>
<rscale>  0 0.81612189E+02</rscale>
<asrwt>0</asrwt>
<pdfrwt beam="1">  1       22 0.38003298E+00 0.81612189E+02</pdfrwt>
<pdfrwt beam="2">0</pdfrwt>
<totfact> 0.10289069E-01</totfact>
</mgrwt>
</event>
<event>
 4    1  0.8963905E-004  0.9883589E+02  0.7546771E-02  0.1165845E+00
         22   -1    0    0    0    0  0.00000000000E+00  0.00000000000E+00  0.75125198368E+01  0.75125198368E+01  0.00000000000E+00 0. -1.
         22   -1    0    0    0    0 -0.00000000000E+00 -0.00000000000E+00 -0.15937762051E+04  0.15937762051E+04  0.00000000000E+00 0. -1.
         24    1    1    2    0    0  0.41805890357E+02 -0.39415533003E+02 -0.44956430628E+03  0.46030055198E+03  0.80419002446E+02 0. -1.
        -24    1    1    2    0    0 -0.41805890357E+02  0.39415533003E+02 -0.11366993790E+04  0.11409881730E+04  0.80419002446E+02 0. -1.
<mgrwt>
<rscale>  0 0.98835888E+02</rscale>
<asrwt>0</asrwt>
<pdfrwt beam="1">  1       22 0.15024658E+00 0.98835888E+02</pdfrwt>
<pdfrwt beam="2">0</pdfrwt>
<totfact> 0.27195798E-02</totfact>
</mgrwt>
</event>
<event>
 4    1  0.8963905E-004  0.1124050E+03  0.7546771E-02  0.1143939E+00
         22   -1    0    0    0    0  0.00000000000E+00  0.00000000000E+00  0.18626503558E+02  0.18626503558E+02  0.00000000000E+00 0.  1.
         22   -1    0    0    0    0 -0.00000000000E+00 -0.00000000000E+00 -0.72403585565E+03  0.72403585565E+03  0.00000000000E+00 0. -1.
         24    1    1    2    0    0  0.57815667097E+02 -0.53150833690E+02 -0.25940569018E+03  0.28271220443E+03  0.80419002446E+02 0.  1.
        -24    1    1    2    0    0 -0.57815667097E+02  0.53150833690E+02 -0.44600366191E+03  0.45995015477E+03  0.80419002446E+02 0. -1.
<mgrwt>
<rscale>  0 0.11240498E+03</rscale>
<asrwt>0</asrwt>
<pdfrwt beam="1">  1       22 0.37252784E+00 0.11240498E+03</pdfrwt>
<pdfrwt beam="2">0</pdfrwt>
<totfact> 0.46274498E-02</totfact>
</mgrwt>
</event>
<event>
 4    1  0.8963905E-004  0.8396978E+02  0.7546771E-02  0.1194864E+00
         22   -1    0    0    0    0  0.00000000000E+00  0.00000000000E+00  0.68752693111E+01  0.68752693111E+01  0.00000000000E+00 0. -1.
         22   -1    0    0    0    0 -0.00000000000E+00 -0.00000000000E+00 -0.11578341279E+04  0.11578341279E+04  0.00000000000E+00 0.  1.
         24    1    1    2    0    0 -0.10714505228E+02 -0.21654262194E+02 -0.37863624609E+03  0.38783544255E+03  0.80419002446E+02 0. -1.
        -24    1    1    2    0    0  0.10714505228E+02  0.21654262194E+02 -0.77232261252E+03  0.77687395468E+03  0.80419002446E+02 0.  0.
<mgrwt>
<rscale>  0 0.83969778E+02</rscale>
<asrwt>0</asrwt>
<pdfrwt beam="1">  1       22 0.13748028E+00 0.83969778E+02</pdfrwt>
<pdfrwt beam="2">0</pdfrwt>
<totfact> 0.63615333E-02</totfact>
</mgrwt>
</event>
<event>
 4    1  0.8963905E-004  0.1091473E+03  0.7546771E-02  0.1148873E+00
         22   -1    0    0    0    0  0.00000000000E+00  0.00000000000E+00  0.26522018889E+02  0.26522018889E+02  0.00000000000E+00 0. -1.
         22   -1    0    0    0    0 -0.00000000000E+00 -0.00000000000E+00 -0.62006709587E+03  0.62006709587E+03  0.00000000000E+00 0.  1.
         24    1    1    2    0    0  0.44700357384E+02 -0.58717845360E+02 -0.12705158373E+03  0.16749694982E+03  0.80419002446E+02 0. -1.
        -24    1    1    2    0    0 -0.44700357384E+02  0.58717845360E+02 -0.46649349325E+03  0.47909216494E+03  0.80419002446E+02 0.  1.
<mgrwt>
<rscale>  0 0.10914725E+03</rscale>
<asrwt>0</asrwt>
<pdfrwt beam="1">  1       22 0.53044008E+00 0.10914725E+03</pdfrwt>
<pdfrwt beam="2">0</pdfrwt>
<totfact> 0.36654560E-02</totfact>
</mgrwt>
</event>
<event>
 4    1  0.8963905E-004  0.1487653E+03  0.7546771E-02  0.1099012E+00
         22   -1    0    0    0    0  0.00000000000E+00  0.00000000000E+00  0.21000172609E+02  0.21000172609E+02  0.00000000000E+00 0. -1.
         22   -1    0    0    0    0 -0.00000000000E+00 -0.00000000000E+00 -0.12228503658E+04  0.12228503658E+04  0.00000000000E+00 0.  1.
         24    1    1    2    0    0 -0.10562916235E+02  0.12470892672E+03 -0.36972354866E+03  0.39853056344E+03  0.80419002446E+02 0. -1.
        -24    1    1    2    0    0  0.10562916235E+02 -0.12470892672E+03 -0.83212664454E+03  0.84531997499E+03  0.80419002446E+02 0.  1.
<mgrwt>
<rscale>  0 0.14876528E+03</rscale>
<asrwt>0</asrwt>
<pdfrwt beam="1">  1       22 0.42000378E+00 0.14876528E+03</pdfrwt>
<pdfrwt beam="2">0</pdfrwt>
<totfact> 0.13407166E-02</totfact>
</mgrwt>
</event>
<event>
 4    1  0.8963905E-004  0.1122343E+03  0.7546771E-02  0.1144193E+00
         22   -1    0    0    0    0  0.00000000000E+00  0.00000000000E+00  0.18432430724E+02  0.18432430724E+02  0.00000000000E+00 0. -1.
         22   -1    0    0    0    0 -0.00000000000E+00 -0.00000000000E+00 -0.13020936701E+04  0.13020936701E+04  0.00000000000E+00 0. -1.
         24    1    1    2    0    0 -0.25613075712E+02 -0.73981766137E+02 -0.18669894130E+03  0.21783719151E+03  0.80419002446E+02 0. -1.
        -24    1    1    2    0    0  0.25613075712E+02  0.73981766137E+02 -0.10969622980E+04  0.11026889093E+04  0.80419002446E+02 0. -1.
<mgrwt>
<rscale>  0 0.11223434E+03</rscale>
<asrwt>0</asrwt>
<pdfrwt beam="1">  1       22 0.36864357E+00 0.11223434E+03</pdfrwt>
<pdfrwt beam="2">0</pdfrwt>
<totfact> 0.13709441E-02</totfact>
</mgrwt>
</event>
<event>
 4    1  0.8963905E-004  0.1131760E+03  0.7546771E-02  0.1142799E+00
         22   -1    0    0    0    0  0.00000000000E+00  0.00000000000E+00  0.49163589168E+02  0.49163589168E+02  0.00000000000E+00 0. -1.
         22   -1    0    0    0    0 -0.00000000000E+00 -0.00000000000E+00 -0.28786783506E+03  0.28786783506E+03  0.00000000000E+00 0.  1.
         24    1    1    2    0    0  0.40542073554E+02 -0.68541462298E+02 -0.67425427106E+02  0.13173836175E+03  0.80419002446E+02 0. -1.
        -24    1    1    2    0    0 -0.40542073554E+02  0.68541462298E+02 -0.17127881878E+03  0.20529306248E+03  0.80419002446E+02 0.  0.
<mgrwt>
<rscale>  0 0.11317600E+03</rscale>
<asrwt>0</asrwt>
<pdfrwt beam="1">  1       22 0.98326780E+00 0.11317600E+03</pdfrwt>
<pdfrwt beam="2">0</pdfrwt>
<totfact> 0.49737297E-02</totfact>
</mgrwt>
</event>
<event>
 4    1  0.8963905E-004  0.8167028E+02  0.7546771E-02  0.1199955E+00
         22   -1    0    0    0    0  0.00000000000E+00  0.00000000000E+00  0.22170466581E+01  0.22170466581E+01  0.00000000000E+00 0.  1.
         22   -1    0    0    0    0 -0.00000000000E+00 -0.00000000000E+00 -0.31419176505E+04  0.31419176505E+04  0.00000000000E+00 0.  1.
         24    1    1    2    0    0  0.92505582097E+01 -0.10828043763E+02 -0.18937744751E+04  0.18955346997E+04  0.80419002446E+02 0.  0.
        -24    1    1    2    0    0 -0.92505582097E+01  0.10828043763E+02 -0.12459261287E+04  0.12485999974E+04  0.80419002446E+02 0.  0.
<mgrwt>
<rscale>  0 0.81670284E+02</rscale>
<asrwt>0</asrwt>
<pdfrwt beam="1">  1       22 0.44309597E-01 0.81670284E+02</pdfrwt>
<pdfrwt beam="2">0</pdfrwt>
<totfact> 0.11905423E-02</totfact>
</mgrwt>
</event>
<event>
 4    1  0.8963905E-004  0.9573329E+02  0.7546771E-02  0.1171409E+00
         22   -1    0    0    0    0  0.00000000000E+00  0.00000000000E+00  0.48108077296E+01  0.48108077296E+01  0.00000000000E+00 0. -1.
         22   -1    0    0    0    0 -0.00000000000E+00 -0.00000000000E+00 -0.19139424378E+04  0.19139424378E+04  0.00000000000E+00 0. -1.
         24    1    1    2    0    0  0.42710571180E+02 -0.29554241624E+02 -0.10199343383E+04  0.10244173546E+04  0.80419002446E+02 0. -1.
        -24    1    1    2    0    0 -0.42710571180E+02  0.29554241624E+02 -0.88919729180E+03  0.89433589092E+03  0.80419002446E+02 0. -1.
<mgrwt>
<rscale>  0 0.95733286E+02</rscale>
<asrwt>0</asrwt>
<pdfrwt beam="1">  1       22 0.96177092E-01 0.95733286E+02</pdfrwt>
<pdfrwt beam="2">0</pdfrwt>
<totfact> 0.28485739E-02</totfact>
</mgrwt>
</event>
<event>
 4    1  0.8963905E-004  0.1795920E+03  0.7546771E-02  0.1070793E+00
         22   -1    0    0    0    0  0.00000000000E+00  0.00000000000E+00  0.30133589814E+02  0.30133589814E+02  0.00000000000E+00 0. -1.
         22   -1    0    0    0    0 -0.00000000000E+00 -0.00000000000E+00 -0.12565548362E+04  0.12565548362E+04  0.00000000000E+00 0. -1.
         24    1    1    2    0    0  0.14566561444E+03  0.67584037531E+02 -0.86087060548E+03  0.87940405315E+03  0.80419002446E+02 0. -1.
        -24    1    1    2    0    0 -0.14566561444E+03 -0.67584037531E+02 -0.36555064088E+03  0.40728437284E+03  0.80419002446E+02 0. -1.
<mgrwt>
<rscale>  0 0.17959201E+03</rscale>
<asrwt>0</asrwt>
<pdfrwt beam="1">  1       22 0.60265398E+00 0.17959201E+03</pdfrwt>
<pdfrwt beam="2">0</pdfrwt>
<totfact> 0.74481890E-03</totfact>
</mgrwt>
</event>
<event>
 4    1  0.8963905E-004  0.8256945E+02  0.7546771E-02  0.1197942E+00
         22   -1    0    0    0    0  0.00000000000E+00  0.00000000000E+00  0.11984924485E+02  0.11984924485E+02  0.00000000000E+00 0. -1.
         22   -1    0    0    0    0 -0.00000000000E+00 -0.00000000000E+00 -0.33352953279E+04  0.33352953279E+04  0.00000000000E+00 0. -1.
         24    1    1    2    0    0 -0.12077521589E+02  0.14304946757E+02 -0.13740805522E+03  0.16030810218E+03  0.80419002446E+02 0. -1.
        -24    1    1    2    0    0  0.12077521589E+02 -0.14304946757E+02 -0.31859023482E+04  0.31869721502E+04  0.80419002446E+02 0. -1.
<mgrwt>
<rscale>  0 0.82569449E+02</rscale>
<asrwt>0</asrwt>
<pdfrwt beam="1">  1       22 0.23962069E+00 0.82569449E+02</pdfrwt>
<pdfrwt beam="2">0</pdfrwt>
<totfact> 0.11915366E-03</totfact>
</mgrwt>
</event>
<event>
 4    1  0.8963905E-004  0.9010271E+02  0.7546771E-02  0.1182135E+00
         22   -1    0    0    0    0  0.00000000000E+00  0.00000000000E+00  0.22787030292E+02  0.22787030292E+02  0.00000000000E+00 0.  1.
         22   -1    0    0    0    0 -0.00000000000E+00 -0.00000000000E+00 -0.19723512872E+04  0.19723512872E+04  0.00000000000E+00 0. -1.
         24    1    1    2    0    0 -0.66096251901E+01  0.40094824602E+02 -0.18777691761E+04  0.18799296733E+04  0.80419002446E+02 0. -1.
        -24    1    1    2    0    0  0.66096251901E+01 -0.40094824602E+02 -0.71795080859E+02  0.11520864419E+03  0.80419002446E+02 0.  1.
<mgrwt>
<rscale>  0 0.90102708E+02</rscale>
<asrwt>0</asrwt>
<pdfrwt beam="1">  1       22 0.45579686E+00 0.90102708E+02</pdfrwt>
<pdfrwt beam="2">0</pdfrwt>
<totfact> 0.34382814E-03</totfact>
</mgrwt>
</event>
<event>
 4    1  0.8963905E-004  0.1054899E+03  0.7546771E-02  0.1154644E+00
         22   -1    0    0    0    0  0.00000000000E+00  0.00000000000E+00  0.38424001693E+01  0.38424001693E+01  0.00000000000E+00 0.  1.
         22   -1    0    0    0    0 -0.00000000000E+00 -0.00000000000E+00 -0.28967819625E+04  0.28967819625E+04  0.00000000000E+00 0.  1.
         24    1    1    2    0    0  0.14811162390E+02  0.66644849331E+02 -0.14680880504E+04  0.14718731760E+04  0.80419002446E+02 0.  1.
        -24    1    1    2    0    0 -0.14811162390E+02 -0.66644849331E+02 -0.14248515119E+04  0.14287511866E+04  0.80419002446E+02 0.  1.
<mgrwt>
<rscale>  0 0.10548992E+03</rscale>
<asrwt>0</asrwt>
<pdfrwt beam="1">  1       22 0.76792593E-01 0.10548992E+03</pdfrwt>
<pdfrwt beam="2">0</pdfrwt>
<totfact> 0.93126780E-03</totfact>
</mgrwt>
</event>
<event>
 4    1  0.8963905E-004  0.8355633E+02  0.7546771E-02  0.1195765E+00
         22   -1    0    0    0    0  0.00000000000E+00  0.00000000000E+00  0.94047821190E+01  0.94047821190E+01  0.00000000000E+00 0. -1.
         22   -1    0    0    0    0 -0.00000000000E+00 -0.00000000000E+00 -0.14066079345E+04  0.14066079345E+04  0.00000000000E+00 0.  1.
         24    1    1    2    0    0  0.17444964346E+02 -0.14495431165E+02 -0.21206185960E+03  0.22792957806E+03  0.80419002446E+02 0. -1.
        -24    1    1    2    0    0 -0.17444964346E+02  0.14495431165E+02 -0.11851412928E+04  0.11880831386E+04  0.80419002446E+02 0.  1.
<mgrwt>
<rscale>  0 0.83556330E+02</rscale>
<asrwt>0</asrwt>
<pdfrwt beam="1">  1       22 0.18812992E+00 0.83556330E+02</pdfrwt>
<pdfrwt beam="2">0</pdfrwt>
<totfact> 0.27572920E-02</totfact>
</mgrwt>
</event>
<event>
 4    1  0.8963905E-004  0.1124536E+03  0.7546771E-02  0.1143867E+00
         22   -1    0    0    0    0  0.00000000000E+00  0.00000000000E+00  0.30469731488E+02  0.30469731488E+02  0.00000000000E+00 0.  1.
         22   -1    0    0    0    0 -0.00000000000E+00 -0.00000000000E+00 -0.73909196316E+03  0.73909196316E+03  0.00000000000E+00 0.  1.
         24    1    1    2    0    0 -0.10839304837E+00 -0.78603908141E+02 -0.60909933800E+03  0.61939309459E+03  0.80419002446E+02 0.  1.
        -24    1    1    2    0    0  0.10839304837E+00  0.78603908141E+02 -0.99522893681E+02  0.15016860006E+03  0.80419002446E+02 0.  1.
<mgrwt>
<rscale>  0 0.11245356E+03</rscale>
<asrwt>0</asrwt>
<pdfrwt beam="1">  1       22 0.60939870E+00 0.11245356E+03</pdfrwt>
<pdfrwt beam="2">0</pdfrwt>
<totfact> 0.21386230E-02</totfact>
</mgrwt>
</event>
<event>
 4    1  0.8963905E-004  0.9478206E+02  0.7546771E-02  0.1173162E+00
         22   -1    0    0    0    0  0.00000000000E+00  0.00000000000E+00  0.32740777403E+02  0.32740777403E+02  0.00000000000E+00 0. -1.
         22   -1    0    0    0    0 -0.00000000000E+00 -0.00000000000E+00 -0.28709065187E+03  0.28709065187E+03  0.00000000000E+00 0.  1.
         24    1    1    2    0    0 -0.30153935362E+01 -0.50073256027E+02 -0.16081432517E+03  0.18666785128E+03  0.80419002446E+02 0.  0.
        -24    1    1    2    0    0  0.30153935362E+01  0.50073256027E+02 -0.93535549297E+02  0.13316357799E+03  0.80419002446E+02 0. -1.
<mgrwt>
<rscale>  0 0.94782063E+02</rscale>
<asrwt>0</asrwt>
<pdfrwt beam="1">  1       22 0.65481853E+00 0.94782063E+02</pdfrwt>
<pdfrwt beam="2">0</pdfrwt>
<totfact> 0.95775250E-02</totfact>
</mgrwt>
</event>
<event>
 4    1  0.8963905E-004  0.8800619E+02  0.7546771E-02  0.1186355E+00
         22   -1    0    0    0    0  0.00000000000E+00  0.00000000000E+00  0.81208129265E+01  0.81208129265E+01  0.00000000000E+00 0.  1.
         22   -1    0    0    0    0 -0.00000000000E+00 -0.00000000000E+00 -0.98783175631E+03  0.98783175631E+03  0.00000000000E+00 0. -1.
         24    1    1    2    0    0 -0.46129828014E+01 -0.35448463396E+02 -0.39733560676E+03  0.40696519940E+03  0.80419002446E+02 0.  0.
        -24    1    1    2    0    0  0.46129828014E+01  0.35448463396E+02 -0.58237533662E+03  0.58898736983E+03  0.80419002446E+02 0.  0.
<mgrwt>
<rscale>  0 0.88006188E+02</rscale>
<asrwt>0</asrwt>
<pdfrwt beam="1">  1       22 0.16241333E+00 0.88006188E+02</pdfrwt>
<pdfrwt beam="2">0</pdfrwt>
<totfact> 0.73316181E-02</totfact>
</mgrwt>
</event>
<event>
 4    1  0.8963905E-004  0.8043550E+02  0.7546771E-02  0.1202767E+00
         22   -1    0    0    0    0  0.00000000000E+00  0.00000000000E+00  0.33566576410E+02  0.33566576410E+02  0.00000000000E+00 0. -1.
         22   -1    0    0    0    0 -0.00000000000E+00 -0.00000000000E+00 -0.19638163734E+03  0.19638163734E+03  0.00000000000E+00 0.  1.
         24    1    1    2    0    0 -0.16124972494E+01  0.23024622757E+00 -0.97048310615E+02  0.12604857678E+03  0.80419002446E+02 0.  0.
        -24    1    1    2    0    0  0.16124972494E+01 -0.23024622757E+00 -0.65766750311E+02  0.10389963697E+03  0.80419002446E+02 0. -1.
<mgrwt>
<rscale>  0 0.80435497E+02</rscale>
<asrwt>0</asrwt>
<pdfrwt beam="1">  1       22 0.67133324E+00 0.80435497E+02</pdfrwt>
<pdfrwt beam="2">0</pdfrwt>
<totfact> 0.16103141E-01</totfact>
</mgrwt>
</event>
<event>
 4    1  0.8963905E-004  0.1551666E+03  0.7546771E-02  0.1092568E+00
         22   -1    0    0    0    0  0.00000000000E+00  0.00000000000E+00  0.36978980547E+02  0.36978980547E+02  0.00000000000E+00 0. -1.
         22   -1    0    0    0    0 -0.00000000000E+00 -0.00000000000E+00 -0.10587638442E+04  0.10587638442E+04  0.00000000000E+00 0.  1.
         24    1    1    2    0    0 -0.56155656499E+02 -0.12023306516E+03 -0.85085823663E+03  0.86489097724E+03  0.80419002446E+02 0.  1.
        -24    1    1    2    0    0  0.56155656499E+02  0.12023306516E+03 -0.17092662700E+03  0.23085184749E+03  0.80419002446E+02 0. -1.
<mgrwt>
<rscale>  0 0.15516657E+03</rscale>
<asrwt>0</asrwt>
<pdfrwt beam="1">  1       22 0.73958145E+00 0.15516657E+03</pdfrwt>
<pdfrwt beam="2">0</pdfrwt>
<totfact> 0.78767659E-03</totfact>
</mgrwt>
</event>
<event>
 4    1  0.8963905E-004  0.1009971E+03  0.7546771E-02  0.1162102E+00
         22   -1    0    0    0    0  0.00000000000E+00  0.00000000000E+00  0.43740160880E+02  0.43740160880E+02  0.00000000000E+00 0.  1.
         22   -1    0    0    0    0 -0.00000000000E+00 -0.00000000000E+00 -0.23429116130E+03  0.23429116130E+03  0.00000000000E+00 0.  1.
         24    1    1    2    0    0  0.54273513468E+02 -0.28063762094E+02 -0.10474268680E+03  0.14550407348E+03  0.80419002446E+02 0.  1.
        -24    1    1    2    0    0 -0.54273513468E+02  0.28063762094E+02 -0.85808313620E+02  0.13252724870E+03  0.80419002446E+02 0.  1.
<mgrwt>
<rscale>  0 0.10099705E+03</rscale>
<asrwt>0</asrwt>
<pdfrwt beam="1">  1       22 0.87480299E+00 0.10099705E+03</pdfrwt>
<pdfrwt beam="2">0</pdfrwt>
<totfact> 0.84578324E-02</totfact>
</mgrwt>
</event>
<event>
 4    1  0.8963905E-004  0.8491071E+02  0.7546771E-02  0.1192833E+00
         22   -1    0    0    0    0  0.00000000000E+00  0.00000000000E+00  0.95036096574E+01  0.95036096574E+01  0.00000000000E+00 0.  1.
         22   -1    0    0    0    0 -0.00000000000E+00 -0.00000000000E+00 -0.12358256031E+04  0.12358256031E+04  0.00000000000E+00 0. -1.
         24    1    1    2    0    0 -0.27070241814E+02  0.31328520978E+01 -0.10000788415E+04  0.10036769988E+04  0.80419002446E+02 0. -1.
        -24    1    1    2    0    0  0.27070241814E+02 -0.31328520978E+01 -0.22624315194E+03  0.24165221396E+03  0.80419002446E+02 0.  1.
<mgrwt>
<rscale>  0 0.84910710E+02</rscale>
<asrwt>0</asrwt>
<pdfrwt beam="1">  1       22 0.19008120E+00 0.84910710E+02</pdfrwt>
<pdfrwt beam="2">0</pdfrwt>
<totfact> 0.36812443E-02</totfact>
</mgrwt>
</event>
<event>
 4    1  0.8963905E-004  0.9853452E+02  0.7546771E-02  0.1166375E+00
         22   -1    0    0    0    0  0.00000000000E+00  0.00000000000E+00  0.31976775893E+02  0.31976775893E+02  0.00000000000E+00 0.  1.
         22   -1    0    0    0    0 -0.00000000000E+00 -0.00000000000E+00 -0.94864030744E+03  0.94864030744E+03  0.00000000000E+00 0.  1.
         24    1    1    2    0    0 -0.44230778332E+02  0.35853514783E+02 -0.86263069560E+03  0.86824004124E+03  0.80419002446E+02 0.  1.
        -24    1    1    2    0    0  0.44230778332E+02 -0.35853514783E+02 -0.54032835949E+02  0.11237704209E+03  0.80419002446E+02 0.  1.
<mgrwt>
<rscale>  0 0.98534523E+02</rscale>
<asrwt>0</asrwt>
<pdfrwt beam="1">  1       22 0.63950870E+00 0.98534523E+02</pdfrwt>
<pdfrwt beam="2">0</pdfrwt>
<totfact> 0.11930801E-02</totfact>
</mgrwt>
</event>
<event>
 4    1  0.8963905E-004  0.9899850E+02  0.7546771E-02  0.1165559E+00
         22   -1    0    0    0    0  0.00000000000E+00  0.00000000000E+00  0.10546581966E+02  0.10546581966E+02  0.00000000000E+00 0.  1.
         22   -1    0    0    0    0 -0.00000000000E+00 -0.00000000000E+00 -0.11291379213E+04  0.11291379213E+04  0.00000000000E+00 0. -1.
         24    1    1    2    0    0 -0.34496814430E+01 -0.57633214364E+02 -0.79903777228E+03  0.80514723199E+03  0.80419002446E+02 0. -1.
        -24    1    1    2    0    0  0.34496814430E+01  0.57633214364E+02 -0.31955356706E+03  0.33453727128E+03  0.80419002446E+02 0.  1.
<mgrwt>
<rscale>  0 0.98998503E+02</rscale>
<asrwt>0</asrwt>
<pdfrwt beam="1">  1       22 0.21089713E+00 0.98998503E+02</pdfrwt>
<pdfrwt beam="2">0</pdfrwt>
<totfact> 0.39876658E-02</totfact>
</mgrwt>
</event>
<event>
 4    1  0.8963905E-004  0.1243301E+03  0.7546771E-02  0.1127349E+00
         22   -1    0    0    0    0  0.00000000000E+00  0.00000000000E+00  0.22299646550E+02  0.22299646550E+02  0.00000000000E+00 0.  1.
         22   -1    0    0    0    0 -0.00000000000E+00 -0.00000000000E+00 -0.12532149809E+04  0.12532149809E+04  0.00000000000E+00 0.  1.
         24    1    1    2    0    0 -0.92536220820E+02 -0.20683395254E+02 -0.10417867754E+04  0.10491795158E+04  0.80419002446E+02 0.  1.
        -24    1    1    2    0    0  0.92536220820E+02  0.20683395254E+02 -0.18912855892E+03  0.22633511163E+03  0.80419002446E+02 0.  1.
<mgrwt>
<rscale>  0 0.12433009E+03</rscale>
<asrwt>0</asrwt>
<pdfrwt beam="1">  1       22 0.44601739E+00 0.12433009E+03</pdfrwt>
<pdfrwt beam="2">0</pdfrwt>
<totfact> 0.11447624E-02</totfact>
</mgrwt>
</event>
<event>
 4    1  0.8963905E-004  0.9148066E+02  0.7546771E-02  0.1179430E+00
         22   -1    0    0    0    0  0.00000000000E+00  0.00000000000E+00  0.44561521330E+02  0.44561521330E+02  0.00000000000E+00 0. -1.
         22   -1    0    0    0    0 -0.00000000000E+00 -0.00000000000E+00 -0.45467664926E+03  0.45467664926E+03  0.00000000000E+00 0.  1.
         24    1    1    2    0    0 -0.40164658034E+02 -0.16979277447E+02 -0.39629842639E+03  0.40671999500E+03  0.80419002446E+02 0.  1.
        -24    1    1    2    0    0  0.40164658034E+02  0.16979277447E+02 -0.13816701531E+02  0.92518175583E+02  0.80419002446E+02 0. -1.
<mgrwt>
<rscale>  0 0.91480662E+02</rscale>
<asrwt>0</asrwt>
<pdfrwt beam="1">  1       22 0.89123540E+00 0.91480662E+02</pdfrwt>
<pdfrwt beam="2">0</pdfrwt>
<totfact> 0.28315704E-02</totfact>
</mgrwt>
</event>
<event>
 4    1  0.8963905E-004  0.9476074E+02  0.7546771E-02  0.1173202E+00
         22   -1    0    0    0    0  0.00000000000E+00  0.00000000000E+00  0.31960221273E+02  0.31960221273E+02  0.00000000000E+00 0.  1.
         22   -1    0    0    0    0 -0.00000000000E+00 -0.00000000000E+00 -0.94830441780E+03  0.94830441780E+03  0.00000000000E+00 0.  1.
         24    1    1    2    0    0 -0.45422631648E+02  0.21193565067E+02 -0.86933498989E+03  0.87448437566E+03  0.80419002446E+02 0.  1.
        -24    1    1    2    0    0  0.45422631648E+02 -0.21193565067E+02 -0.47009206641E+02  0.10578026342E+03  0.80419002446E+02 0.  1.
<mgrwt>
<rscale>  0 0.94760744E+02</rscale>
<asrwt>0</asrwt>
<pdfrwt beam="1">  1       22 0.63919846E+00 0.94760744E+02</pdfrwt>
<pdfrwt beam="2">0</pdfrwt>
<totfact> 0.11909667E-02</totfact>
</mgrwt>
</event>
<event>
 4    1  0.8963905E-004  0.8526335E+02  0.7546771E-02  0.1192079E+00
         22   -1    0    0    0    0  0.00000000000E+00  0.00000000000E+00  0.11781981505E+02  0.11781981505E+02  0.00000000000E+00 0.  1.
         22   -1    0    0    0    0 -0.00000000000E+00 -0.00000000000E+00 -0.78829982258E+03  0.78829982258E+03  0.00000000000E+00 0. -1.
         24    1    1    2    0    0  0.24564048643E+02  0.14114923675E+02 -0.20179331547E+03  0.21906707119E+03  0.80419002446E+02 0.  1.
        -24    1    1    2    0    0 -0.24564048643E+02 -0.14114923675E+02 -0.57472452560E+03  0.58101473289E+03  0.80419002446E+02 0. -1.
<mgrwt>
<rscale>  0 0.85263354E+02</rscale>
<asrwt>0</asrwt>
<pdfrwt beam="1">  1       22 0.23563840E+00 0.85263354E+02</pdfrwt>
<pdfrwt beam="2">0</pdfrwt>
<totfact> 0.71915642E-02</totfact>
</mgrwt>
</event>
<event>
 4    1  0.8963905E-004  0.8110500E+02  0.7546771E-02  0.1201235E+00
         22   -1    0    0    0    0  0.00000000000E+00  0.00000000000E+00  0.23766399514E+02  0.23766399514E+02  0.00000000000E+00 0.  1.
         22   -1    0    0    0    0 -0.00000000000E+00 -0.00000000000E+00 -0.57569637660E+03  0.57569637660E+03  0.00000000000E+00 0. -1.
         24    1    1    2    0    0  0.96997388098E+01 -0.40890504026E+01 -0.49194404565E+03  0.49858496294E+03  0.80419002446E+02 0. -1.
        -24    1    1    2    0    0 -0.96997388098E+01  0.40890504026E+01 -0.59985931438E+02  0.10087781318E+03  0.80419002446E+02 0.  1.
<mgrwt>
<rscale>  0 0.81105001E+02</rscale>
<asrwt>0</asrwt>
<pdfrwt beam="1">  1       22 0.47531625E+00 0.81105001E+02</pdfrwt>
<pdfrwt beam="2">0</pdfrwt>
<totfact> 0.48276165E-02</totfact>
</mgrwt>
</event>
<event>
 4    1  0.8963905E-004  0.1146668E+03  0.7546771E-02  0.1140622E+00
         22   -1    0    0    0    0  0.00000000000E+00  0.00000000000E+00  0.40835718775E+02  0.40835718775E+02  0.00000000000E+00 0. -1.
         22   -1    0    0    0    0 -0.00000000000E+00 -0.00000000000E+00 -0.57563144197E+03  0.57563144197E+03  0.00000000000E+00 0. -1.
         24    1    1    2    0    0  0.18022225762E+02  0.79727440976E+02 -0.62790035379E+02  0.13073281900E+03  0.80419002446E+02 0. -1.
        -24    1    1    2    0    0 -0.18022225762E+02 -0.79727440976E+02 -0.47200568781E+03  0.48573434174E+03  0.80419002446E+02 0. -1.
<mgrwt>
<rscale>  0 0.11466683E+03</rscale>
<asrwt>0</asrwt>
<pdfrwt beam="1">  1       22 0.81671058E+00 0.11466683E+03</pdfrwt>
<pdfrwt beam="2">0</pdfrwt>
<totfact> 0.21851600E-02</totfact>
</mgrwt>
</event>
<event>
 4    1  0.8963905E-004  0.8766645E+02  0.7546771E-02  0.1187051E+00
         22   -1    0    0    0    0  0.00000000000E+00  0.00000000000E+00  0.18811127237E+02  0.18811127237E+02  0.00000000000E+00 0.  1.
         22   -1    0    0    0    0 -0.00000000000E+00 -0.00000000000E+00 -0.53771659752E+03  0.53771659752E+03  0.00000000000E+00 0.  1.
         24    1    1    2    0    0  0.10269628909E+02  0.33357534099E+02 -0.39583077626E+03  0.40542250770E+03  0.80419002446E+02 0.  1.
        -24    1    1    2    0    0 -0.10269628909E+02 -0.33357534099E+02 -0.12307469402E+03  0.15110521706E+03  0.80419002446E+02 0.  1.
<mgrwt>
<rscale>  0 0.87666449E+02</rscale>
<asrwt>0</asrwt>
<pdfrwt beam="1">  1       22 0.37622144E+00 0.87666449E+02</pdfrwt>
<pdfrwt beam="2">0</pdfrwt>
<totfact> 0.77299956E-02</totfact>
</mgrwt>
</event>
<event>
 4    1  0.8963905E-004  0.9969008E+02  0.7546771E-02  0.1164353E+00
         22   -1    0    0    0    0  0.00000000000E+00  0.00000000000E+00  0.42608853358E+02  0.42608853358E+02  0.00000000000E+00 0.  1.
         22   -1    0    0    0    0 -0.00000000000E+00 -0.00000000000E+00 -0.24417224145E+03  0.24417224145E+03  0.00000000000E+00 0.  1.
         24    1    1    2    0    0  0.55152789683E+02  0.20713915325E+02 -0.70441662208E+02  0.12206613055E+03  0.80419002446E+02 0.  1.
        -24    1    1    2    0    0 -0.55152789683E+02 -0.20713915325E+02 -0.13112172589E+03  0.16471496426E+03  0.80419002446E+02 0.  1.
<mgrwt>
<rscale>  0 0.99690082E+02</rscale>
<asrwt>0</asrwt>
<pdfrwt beam="1">  1       22 0.85217831E+00 0.99690082E+02</pdfrwt>
<pdfrwt beam="2">0</pdfrwt>
<totfact> 0.82631340E-02</totfact>
</mgrwt>
</event>
<event>
 4    1  0.8963905E-004  0.9128316E+02  0.7546771E-02  0.1179814E+00
         22   -1    0    0    0    0  0.00000000000E+00  0.00000000000E+00  0.31722287125E+02  0.31722287125E+02  0.00000000000E+00 0. -1.
         22   -1    0    0    0    0 -0.00000000000E+00 -0.00000000000E+00 -0.59699463522E+03  0.59699463522E+03  0.00000000000E+00 0. -1.
         24    1    1    2    0    0 -0.40835634528E+02  0.14065933095E+02 -0.51788183690E+03  0.52586520371E+03  0.80419002446E+02 0. -1.
        -24    1    1    2    0    0  0.40835634528E+02 -0.14065933095E+02 -0.47390511189E+02  0.10285171864E+03  0.80419002446E+02 0. -1.
<mgrwt>
<rscale>  0 0.91283161E+02</rscale>
<asrwt>0</asrwt>
<pdfrwt beam="1">  1       22 0.63444386E+00 0.91283161E+02</pdfrwt>
<pdfrwt beam="2">0</pdfrwt>
<totfact> 0.29448395E-02</totfact>
</mgrwt>
</event>
<event>
 4    1  0.8963905E-004  0.1412857E+03  0.7546771E-02  0.1107009E+00
         22   -1    0    0    0    0  0.00000000000E+00  0.00000000000E+00  0.27015052301E+02  0.27015052301E+02  0.00000000000E+00 0.  1.
         22   -1    0    0    0    0 -0.00000000000E+00 -0.00000000000E+00 -0.97510386948E+03  0.97510386948E+03  0.00000000000E+00 0. -1.
         24    1    1    2    0    0 -0.77438267474E+02  0.86589586105E+02 -0.22744086290E+03  0.26775175772E+03  0.80419002446E+02 0.  1.
        -24    1    1    2    0    0  0.77438267474E+02 -0.86589586105E+02 -0.72064795427E+03  0.73436716406E+03  0.80419002446E+02 0. -1.
<mgrwt>
<rscale>  0 0.14128573E+03</rscale>
<asrwt>0</asrwt>
<pdfrwt beam="1">  1       22 0.54030123E+00 0.14128573E+03</pdfrwt>
<pdfrwt beam="2">0</pdfrwt>
<totfact> 0.15011672E-02</totfact>
</mgrwt>
</event>
<event>
 4    1  0.8963905E-004  0.1210484E+03  0.7546771E-02  0.1131702E+00
         22   -1    0    0    0    0  0.00000000000E+00  0.00000000000E+00  0.20076503725E+02  0.20076503725E+02  0.00000000000E+00 0.  1.
         22   -1    0    0    0    0 -0.00000000000E+00 -0.00000000000E+00 -0.90860573474E+03  0.90860573474E+03  0.00000000000E+00 0. -1.
         24    1    1    2    0    0 -0.29405358819E+01  0.90425945578E+02 -0.65022646106E+03  0.66139788706E+03  0.80419002446E+02 0. -1.
        -24    1    1    2    0    0  0.29405358819E+01 -0.90425945578E+02 -0.23830276995E+03  0.26728435140E+03  0.80419002446E+02 0.  0.
<mgrwt>
<rscale>  0 0.12104840E+03</rscale>
<asrwt>0</asrwt>
<pdfrwt beam="1">  1       22 0.40150540E+00 0.12104840E+03</pdfrwt>
<pdfrwt beam="2">0</pdfrwt>
<totfact> 0.26663934E-02</totfact>
</mgrwt>
</event>
<event>
 4    1  0.8963905E-004  0.1432820E+03  0.7546771E-02  0.1104822E+00
         22   -1    0    0    0    0  0.00000000000E+00  0.00000000000E+00  0.34754395923E+02  0.34754395923E+02  0.00000000000E+00 0. -1.
         22   -1    0    0    0    0 -0.00000000000E+00 -0.00000000000E+00 -0.92059525297E+03  0.92059525297E+03  0.00000000000E+00 0. -1.
         24    1    1    2    0    0  0.87505056404E+02 -0.80033559496E+02 -0.15697685417E+03  0.21253577167E+03  0.80419002446E+02 0. -1.
        -24    1    1    2    0    0 -0.87505056404E+02  0.80033559496E+02 -0.72886400288E+03  0.74281387722E+03  0.80419002446E+02 0. -1.
<mgrwt>
<rscale>  0 0.14328197E+03</rscale>
<asrwt>0</asrwt>
<pdfrwt beam="1">  1       22 0.69509135E+00 0.14328197E+03</pdfrwt>
<pdfrwt beam="2">0</pdfrwt>
<totfact> 0.11534440E-02</totfact>
</mgrwt>
</event>
<event>
 4    1  0.8963905E-004  0.8575175E+02  0.7546771E-02  0.1191042E+00
         22   -1    0    0    0    0  0.00000000000E+00  0.00000000000E+00  0.36712828744E+02  0.36712828744E+02  0.00000000000E+00 0.  1.
         22   -1    0    0    0    0 -0.00000000000E+00 -0.00000000000E+00 -0.12730397005E+04  0.12730397005E+04  0.00000000000E+00 0.  1.
         24    1    1    2    0    0 -0.28501128884E+02  0.85926140418E+01 -0.17008184033E+02  0.87422203371E+02  0.80419002446E+02 0.  1.
        -24    1    1    2    0    0  0.28501128884E+02 -0.85926140418E+01 -0.12193186878E+04  0.12223303259E+04  0.80419002446E+02 0.  1.
<mgrwt>
<rscale>  0 0.85751754E+02</rscale>
<asrwt>0</asrwt>
<pdfrwt beam="1">  1       22 0.73425896E+00 0.85751754E+02</pdfrwt>
<pdfrwt beam="2">0</pdfrwt>
<totfact> 0.50278794E-03</totfact>
</mgrwt>
</event>
<event>
 4    1  0.8963905E-004  0.1310131E+03  0.7546771E-02  0.1118928E+00
         22   -1    0    0    0    0  0.00000000000E+00  0.00000000000E+00  0.22359261647E+02  0.22359261647E+02  0.00000000000E+00 0. -1.
         22   -1    0    0    0    0 -0.00000000000E+00 -0.00000000000E+00 -0.78843636499E+03  0.78843636499E+03  0.00000000000E+00 0.  1.
         24    1    1    2    0    0 -0.97824088400E+02  0.33580662336E+02 -0.31723830069E+03  0.34322670137E+03  0.80419002446E+02 0. -1.
        -24    1    1    2    0    0  0.97824088400E+02 -0.33580662336E+02 -0.44883880265E+03  0.46756892527E+03  0.80419002446E+02 0.  0.
<mgrwt>
<rscale>  0 0.13101309E+03</rscale>
<asrwt>0</asrwt>
<pdfrwt beam="1">  1       22 0.44719422E+00 0.13101309E+03</pdfrwt>
<pdfrwt beam="2">0</pdfrwt>
<totfact> 0.30457037E-02</totfact>
</mgrwt>
</event>
<event>
 4    1  0.8963905E-004  0.1231086E+03  0.7546771E-02  0.1128952E+00
         22   -1    0    0    0    0  0.00000000000E+00  0.00000000000E+00  0.28238981671E+02  0.28238981671E+02  0.00000000000E+00 0. -1.
         22   -1    0    0    0    0 -0.00000000000E+00 -0.00000000000E+00 -0.71024827250E+03  0.71024827250E+03  0.00000000000E+00 0. -1.
         24    1    1    2    0    0 -0.92180406525E+02 -0.13830809270E+02 -0.52353020328E+03  0.53781001137E+03  0.80419002446E+02 0. -1.
        -24    1    1    2    0    0  0.92180406525E+02  0.13830809270E+02 -0.15847908755E+03  0.20067724280E+03  0.80419002446E+02 0. -1.
<mgrwt>
<rscale>  0 0.12310863E+03</rscale>
<asrwt>0</asrwt>
<pdfrwt beam="1">  1       22 0.56477992E+00 0.12310863E+03</pdfrwt>
<pdfrwt beam="2">0</pdfrwt>
<totfact> 0.26113774E-02</totfact>
</mgrwt>
</event>
<event>
 4    1  0.8963905E-004  0.1319350E+03  0.7546771E-02  0.1117809E+00
         22   -1    0    0    0    0  0.00000000000E+00  0.00000000000E+00  0.18824452454E+02  0.18824452454E+02  0.00000000000E+00 0.  1.
         22   -1    0    0    0    0 -0.00000000000E+00 -0.00000000000E+00 -0.11457584832E+04  0.11457584832E+04  0.00000000000E+00 0.  1.
         24    1    1    2    0    0 -0.55368534796E+02 -0.88735375079E+02 -0.81923926105E+03  0.82979504954E+03  0.80419002446E+02 0.  1.
        -24    1    1    2    0    0  0.55368534796E+02  0.88735375079E+02 -0.30769476965E+03  0.33478788608E+03  0.80419002446E+02 0.  1.
<mgrwt>
<rscale>  0 0.13193505E+03</rscale>
<asrwt>0</asrwt>
<pdfrwt beam="1">  1       22 0.37649541E+00 0.13193505E+03</pdfrwt>
<pdfrwt beam="2">0</pdfrwt>
<totfact> 0.17992794E-02</totfact>
</mgrwt>
</event>
<event>
 4    1  0.8963905E-004  0.8748753E+02  0.7546771E-02  0.1187419E+00
         22   -1    0    0    0    0  0.00000000000E+00  0.00000000000E+00  0.14646453620E+02  0.14646453620E+02  0.00000000000E+00 0.  1.
         22   -1    0    0    0    0 -0.00000000000E+00 -0.00000000000E+00 -0.53976219771E+03  0.53976219771E+03  0.00000000000E+00 0. -1.
         24    1    1    2    0    0 -0.33897313787E+02  0.61500928452E+01 -0.31200389024E+03  0.32403779873E+03  0.80419002446E+02 0.  0.
        -24    1    1    2    0    0  0.33897313787E+02 -0.61500928452E+01 -0.21311185385E+03  0.23037085260E+03  0.80419002446E+02 0.  1.
<mgrwt>
<rscale>  0 0.87487528E+02</rscale>
<asrwt>0</asrwt>
<pdfrwt beam="1">  1       22 0.29291677E+00 0.87487528E+02</pdfrwt>
<pdfrwt beam="2">0</pdfrwt>
<totfact> 0.10897133E-01</totfact>
</mgrwt>
</event>
<event>
 4    1  0.8963905E-004  0.1160483E+03  0.7546771E-02  0.1138637E+00
         22   -1    0    0    0    0  0.00000000000E+00  0.00000000000E+00  0.22432203607E+02  0.22432203607E+02  0.00000000000E+00 0.  1.
         22   -1    0    0    0    0 -0.00000000000E+00 -0.00000000000E+00 -0.90536580242E+03  0.90536580242E+03  0.00000000000E+00 0. -1.
         24    1    1    2    0    0  0.12747511021E+02  0.82689074181E+02 -0.71072676571E+03  0.72013869045E+03  0.80419002446E+02 0. -1.
        -24    1    1    2    0    0 -0.12747511021E+02 -0.82689074181E+02 -0.17220683310E+03  0.20765931558E+03  0.80419002446E+02 0.  1.
<mgrwt>
<rscale>  0 0.11604826E+03</rscale>
<asrwt>0</asrwt>
<pdfrwt beam="1">  1       22 0.44862840E+00 0.11604826E+03</pdfrwt>
<pdfrwt beam="2">0</pdfrwt>
<totfact> 0.22757232E-02</totfact>
</mgrwt>
</event>
<event>
 4    1  0.1058329E-003  0.9869299E+02  0.7546771E-02  0.1166096E+00
         22   -1    0    0    0    0  0.00000000000E+00  0.00000000000E+00  0.40882431986E+02  0.40882431986E+02  0.00000000000E+00 0.  1.
         22   -1    0    0    0    0 -0.00000000000E+00 -0.00000000000E+00 -0.12832986146E+04  0.12832986146E+04  0.00000000000E+00 0. -1.
         24    1    1    2    0    0  0.55344658396E+02  0.14493398922E+02 -0.12186854036E+04  0.12226751076E+04  0.80419002446E+02 0. -1.
        -24    1    1    2    0    0 -0.55344658396E+02 -0.14493398922E+02 -0.23730779022E+02  0.10150593900E+03  0.80419002446E+02 0.  1.
<mgrwt>
<rscale>  0 0.98692987E+02</rscale>
<asrwt>0</asrwt>
<pdfrwt beam="1">  1       22 0.81765361E+00 0.98692987E+02</pdfrwt>
<pdfrwt beam="2">0</pdfrwt>
<totfact> 0.42465642E-03</totfact>
</mgrwt>
</event>
<event>
 4    1  0.8963905E-004  0.8659545E+02  0.7546771E-02  0.1189269E+00
         22   -1    0    0    0    0  0.00000000000E+00  0.00000000000E+00  0.41128679885E+02  0.41128679885E+02  0.00000000000E+00 0.  1.
         22   -1    0    0    0    0 -0.00000000000E+00 -0.00000000000E+00 -0.42055512407E+03  0.42055512407E+03  0.00000000000E+00 0. -1.
         24    1    1    2    0    0  0.12360534393E+02 -0.29644118075E+02 -0.36345402715E+03  0.37362762526E+03  0.80419002446E+02 0. -1.
        -24    1    1    2    0    0 -0.12360534393E+02  0.29644118075E+02 -0.15972417034E+02  0.88056178700E+02  0.80419002446E+02 0.  1.
<mgrwt>
<rscale>  0 0.86595453E+02</rscale>
<asrwt>0</asrwt>
<pdfrwt beam="1">  1       22 0.82257142E+00 0.86595453E+02</pdfrwt>
<pdfrwt beam="2">0</pdfrwt>
<totfact> 0.36339330E-02</totfact>
</mgrwt>
</event>
<event>
 4    1  0.8963905E-004  0.8904325E+02  0.7546771E-02  0.1184251E+00
         22   -1    0    0    0    0  0.00000000000E+00  0.00000000000E+00  0.15636570713E+02  0.15636570713E+02  0.00000000000E+00 0.  1.
         22   -1    0    0    0    0 -0.00000000000E+00 -0.00000000000E+00 -0.32378986792E+04  0.32378986792E+04  0.00000000000E+00 0.  1.
         24    1    1    2    0    0 -0.67865988624E+01  0.37622162812E+02 -0.31051008148E+04  0.31063772744E+04  0.80419002446E+02 0.  1.
        -24    1    1    2    0    0  0.67865988624E+01 -0.37622162812E+02 -0.11716129373E+03  0.14715797553E+03  0.80419002446E+02 0.  1.
<mgrwt>
<rscale>  0 0.89043254E+02</rscale>
<asrwt>0</asrwt>
<pdfrwt beam="1">  1       22 0.31272694E+00 0.89043254E+02</pdfrwt>
<pdfrwt beam="2">0</pdfrwt>
<totfact> 0.97274450E-04</totfact>
</mgrwt>
</event>
<event>
 4    1  0.8963905E-004  0.8983707E+02  0.7546771E-02  0.1182662E+00
         22   -1    0    0    0    0  0.00000000000E+00  0.00000000000E+00  0.24037854256E+02  0.24037854256E+02  0.00000000000E+00 0. -1.
         22   -1    0    0    0    0 -0.00000000000E+00 -0.00000000000E+00 -0.61032525384E+03  0.61032525384E+03  0.00000000000E+00 0. -1.
         24    1    1    2    0    0 -0.66387150931E+01 -0.39489366375E+02 -0.80399214235E+02  0.12056007713E+03  0.80419002446E+02 0. -1.
        -24    1    1    2    0    0  0.66387150931E+01  0.39489366375E+02 -0.50588818535E+03  0.51380303096E+03  0.80419002446E+02 0. -1.
<mgrwt>
<rscale>  0 0.89837067E+02</rscale>
<asrwt>0</asrwt>
<pdfrwt beam="1">  1       22 0.48074176E+00 0.89837067E+02</pdfrwt>
<pdfrwt beam="2">0</pdfrwt>
<totfact> 0.43056933E-02</totfact>
</mgrwt>
</event>
<event>
 4    1  0.8963905E-004  0.9976103E+02  0.7546771E-02  0.1164229E+00
         22   -1    0    0    0    0  0.00000000000E+00  0.00000000000E+00  0.28700356676E+02  0.28700356676E+02  0.00000000000E+00 0.  1.
         22   -1    0    0    0    0 -0.00000000000E+00 -0.00000000000E+00 -0.53971131703E+03  0.53971131703E+03  0.00000000000E+00 0. -1.
         24    1    1    2    0    0  0.52210510784E+02  0.27551955830E+02 -0.85575077775E+02  0.13143575464E+03  0.80419002446E+02 0.  1.
        -24    1    1    2    0    0 -0.52210510784E+02 -0.27551955830E+02 -0.42543588257E+03  0.43697591907E+03  0.80419002446E+02 0. -1.
<mgrwt>
<rscale>  0 0.99761033E+02</rscale>
<asrwt>0</asrwt>
<pdfrwt beam="1">  1       22 0.57399898E+00 0.99761033E+02</pdfrwt>
<pdfrwt beam="2">0</pdfrwt>
<totfact> 0.41439099E-02</totfact>
</mgrwt>
</event>
<event>
 4    1  0.8963905E-004  0.1091753E+03  0.7546771E-02  0.1148829E+00
         22   -1    0    0    0    0  0.00000000000E+00  0.00000000000E+00  0.31360371839E+02  0.31360371839E+02  0.00000000000E+00 0.  1.
         22   -1    0    0    0    0 -0.00000000000E+00 -0.00000000000E+00 -0.16869354812E+04  0.16869354812E+04  0.00000000000E+00 0.  1.
         24    1    1    2    0    0  0.73656524688E+02  0.51714810126E+01 -0.71592931638E+02  0.13055570328E+03  0.80419002446E+02 0.  1.
        -24    1    1    2    0    0 -0.73656524688E+02 -0.51714810126E+01 -0.15839821777E+04  0.15877401497E+04  0.80419002446E+02 0.  1.
<mgrwt>
<rscale>  0 0.10917529E+03</rscale>
<asrwt>0</asrwt>
<pdfrwt beam="1">  1       22 0.62723252E+00 0.10917529E+03</pdfrwt>
<pdfrwt beam="2">0</pdfrwt>
<totfact> 0.32915033E-03</totfact>
</mgrwt>
</event>
<event>
 4    1  0.8963905E-004  0.1391588E+03  0.7546771E-02  0.1109383E+00
         22   -1    0    0    0    0  0.00000000000E+00  0.00000000000E+00  0.35079804738E+02  0.35079804738E+02  0.00000000000E+00 0. -1.
         22   -1    0    0    0    0 -0.00000000000E+00 -0.00000000000E+00 -0.11448792943E+04  0.11448792943E+04  0.00000000000E+00 0.  1.
         24    1    1    2    0    0  0.55499410990E+01  0.11343350003E+03 -0.13035007439E+03  0.19067332960E+03  0.80419002446E+02 0.  0.
        -24    1    1    2    0    0 -0.55499410990E+01 -0.11343350003E+03 -0.97944941522E+03  0.98928576948E+03  0.80419002446E+02 0.  1.
<mgrwt>
<rscale>  0 0.13915882E+03</rscale>
<asrwt>0</asrwt>
<pdfrwt beam="1">  1       22 0.70159960E+00 0.13915882E+03</pdfrwt>
<pdfrwt beam="2">0</pdfrwt>
<totfact> 0.71307006E-03</totfact>
</mgrwt>
</event>
<event>
 4    1  0.8963905E-004  0.9055434E+02  0.7546771E-02  0.1181242E+00
         22   -1    0    0    0    0  0.00000000000E+00  0.00000000000E+00  0.95712011289E+01  0.95712011289E+01  0.00000000000E+00 0.  1.
         22   -1    0    0    0    0 -0.00000000000E+00 -0.00000000000E+00 -0.13322375725E+04  0.13322375725E+04  0.00000000000E+00 0. -1.
         24    1    1    2    0    0  0.35688624899E+02  0.21428808979E+02 -0.26052071097E+03  0.27580995015E+03  0.80419002446E+02 0.  1.
        -24    1    1    2    0    0 -0.35688624899E+02 -0.21428808979E+02 -0.10621456604E+04  0.10659988235E+04  0.80419002446E+02 0. -1.
<mgrwt>
<rscale>  0 0.90554336E+02</rscale>
<asrwt>0</asrwt>
<pdfrwt beam="1">  1       22 0.19141740E+00 0.90554336E+02</pdfrwt>
<pdfrwt beam="2">0</pdfrwt>
<totfact> 0.30836915E-02</totfact>
</mgrwt>
</event>
<event>
 4    1  0.8963905E-004  0.8171659E+02  0.7546771E-02  0.1199850E+00
         22   -1    0    0    0    0  0.00000000000E+00  0.00000000000E+00  0.15899601840E+02  0.15899601840E+02  0.00000000000E+00 0. -1.
         22   -1    0    0    0    0 -0.00000000000E+00 -0.00000000000E+00 -0.48951734214E+03  0.48951734214E+03  0.00000000000E+00 0. -1.
         24    1    1    2    0    0 -0.36296833207E+01  0.14043172592E+02 -0.14156702068E+03  0.16345893244E+03  0.80419002446E+02 0.  0.
        -24    1    1    2    0    0  0.36296833207E+01 -0.14043172592E+02 -0.33205071962E+03  0.34195801154E+03  0.80419002446E+02 0.  0.
<mgrwt>
<rscale>  0 0.81716591E+02</rscale>
<asrwt>0</asrwt>
<pdfrwt beam="1">  1       22 0.31799714E+00 0.81716591E+02</pdfrwt>
<pdfrwt beam="2">0</pdfrwt>
<totfact> 0.11484965E-01</totfact>
</mgrwt>
</event>
<event>
 4    1  0.8963905E-004  0.8076167E+02  0.7546771E-02  0.1202019E+00
         22   -1    0    0    0    0  0.00000000000E+00  0.00000000000E+00  0.39366437588E+02  0.39366437588E+02  0.00000000000E+00 0.  1.
         22   -1    0    0    0    0 -0.00000000000E+00 -0.00000000000E+00 -0.92691832842E+03  0.92691832842E+03  0.00000000000E+00 0. -1.
         24    1    1    2    0    0 -0.98745862949E+00  0.73659006493E+01 -0.59382396947E+01  0.80979690120E+02  0.80419002446E+02 0.  1.
        -24    1    1    2    0    0  0.98745862949E+00 -0.73659006493E+01 -0.88161365114E+03  0.88530507589E+03  0.80419002446E+02 0. -1.
<mgrwt>
<rscale>  0 0.80761671E+02</rscale>
<asrwt>0</asrwt>
<pdfrwt beam="1">  1       22 0.78732319E+00 0.80761671E+02</pdfrwt>
<pdfrwt beam="2">0</pdfrwt>
<totfact> 0.89617274E-03</totfact>
</mgrwt>
</event>
<event>
 4    1  0.8963905E-004  0.8975290E+02  0.7546771E-02  0.1182830E+00
         22   -1    0    0    0    0  0.00000000000E+00  0.00000000000E+00  0.21713035864E+02  0.21713035864E+02  0.00000000000E+00 0. -1.
         22   -1    0    0    0    0 -0.00000000000E+00 -0.00000000000E+00 -0.45473747790E+03  0.45473747790E+03  0.00000000000E+00 0.  1.
         24    1    1    2    0    0  0.39772040993E+02 -0.25597739844E+01 -0.31873830260E+03  0.33113394448E+03  0.80419002446E+02 0.  1.
        -24    1    1    2    0    0 -0.39772040993E+02  0.25597739844E+01 -0.11428613944E+03  0.14531656929E+03  0.80419002446E+02 0. -1.
<mgrwt>
<rscale>  0 0.89752903E+02</rscale>
<asrwt>0</asrwt>
<pdfrwt beam="1">  1       22 0.43426477E+00 0.89752903E+02</pdfrwt>
<pdfrwt beam="2">0</pdfrwt>
<totfact> 0.84093585E-02</totfact>
</mgrwt>
</event>
<event>
 4    1  0.8963905E-004  0.1420236E+03  0.7546771E-02  0.1106196E+00
         22   -1    0    0    0    0  0.00000000000E+00  0.00000000000E+00  0.21297013663E+02  0.21297013663E+02  0.00000000000E+00 0.  1.
         22   -1    0    0    0    0 -0.00000000000E+00 -0.00000000000E+00 -0.24214271064E+04  0.24214271064E+04  0.00000000000E+00 0. -1.
         24    1    1    2    0    0 -0.99398513197E+02  0.61833767559E+02 -0.24704152334E+03  0.28495650448E+03  0.80419002446E+02 0.  1.
        -24    1    1    2    0    0  0.99398513197E+02 -0.61833767559E+02 -0.21530885694E+04  0.21577676156E+04  0.80419002446E+02 0. -1.
<mgrwt>
<rscale>  0 0.14202357E+03</rscale>
<asrwt>0</asrwt>
<pdfrwt beam="1">  1       22 0.42596520E+00 0.14202357E+03</pdfrwt>
<pdfrwt beam="2">0</pdfrwt>
<totfact> 0.20948679E-03</totfact>
</mgrwt>
</event>
<event>
 4    1  0.8963905E-004  0.8499607E+02  0.7546771E-02  0.1192650E+00
         22   -1    0    0    0    0  0.00000000000E+00  0.00000000000E+00  0.59113574130E+01  0.59113574130E+01  0.00000000000E+00 0.  1.
         22   -1    0    0    0    0 -0.00000000000E+00 -0.00000000000E+00 -0.23168314963E+04  0.23168314963E+04  0.00000000000E+00 0.  1.
         24    1    1    2    0    0 -0.24870233521E+02  0.11772308168E+02 -0.35714257784E+03  0.36711735537E+03  0.80419002446E+02 0.  1.
        -24    1    1    2    0    0  0.24870233521E+02 -0.11772308168E+02 -0.19537775611E+04  0.19556254984E+04  0.80419002446E+02 0.  1.
<mgrwt>
<rscale>  0 0.84996069E+02</rscale>
<asrwt>0</asrwt>
<pdfrwt beam="1">  1       22 0.11821348E+00 0.84996069E+02</pdfrwt>
<pdfrwt beam="2">0</pdfrwt>
<totfact> 0.12511202E-02</totfact>
</mgrwt>
</event>
<event>
 4    1  0.8963905E-004  0.8731061E+02  0.7546771E-02  0.1187784E+00
         22   -1    0    0    0    0  0.00000000000E+00  0.00000000000E+00  0.19116843334E+02  0.19116843334E+02  0.00000000000E+00 0.  1.
         22   -1    0    0    0    0 -0.00000000000E+00 -0.00000000000E+00 -0.89256585208E+03  0.89256585208E+03  0.00000000000E+00 0. -1.
         24    1    1    2    0    0 -0.35599355263E+01 -0.33812022971E+02 -0.77577874339E+03  0.78067650194E+03  0.80419002446E+02 0. -1.
        -24    1    1    2    0    0  0.35599355263E+01  0.33812022971E+02 -0.97670265354E+02  0.13100619347E+03  0.80419002446E+02 0.  1.
<mgrwt>
<rscale>  0 0.87310606E+02</rscale>
<asrwt>0</asrwt>
<pdfrwt beam="1">  1       22 0.38235038E+00 0.87310606E+02</pdfrwt>
<pdfrwt beam="2">0</pdfrwt>
<totfact> 0.28910289E-02</totfact>
</mgrwt>
</event>
<event>
 4    1  0.8963905E-004  0.8042647E+02  0.7546771E-02  0.1202788E+00
         22   -1    0    0    0    0  0.00000000000E+00  0.00000000000E+00  0.21715428259E+02  0.21715428259E+02  0.00000000000E+00 0. -1.
         22   -1    0    0    0    0 -0.00000000000E+00 -0.00000000000E+00 -0.33150959555E+03  0.33150959555E+03  0.00000000000E+00 0.  1.
         24    1    1    2    0    0 -0.10766266223E+01 -0.20526759076E+00 -0.98638844442E+02  0.12727151624E+03  0.80419002446E+02 0. -1.
        -24    1    1    2    0    0  0.10766266223E+01  0.20526759076E+00 -0.21115532285E+03  0.22595350756E+03  0.80419002446E+02 0.  1.
<mgrwt>
<rscale>  0 0.80426471E+02</rscale>
<asrwt>0</asrwt>
<pdfrwt beam="1">  1       22 0.43431717E+00 0.80426471E+02</pdfrwt>
<pdfrwt beam="2">0</pdfrwt>
<totfact> 0.14015787E-01</totfact>
</mgrwt>
</event>
<event>
 4    1  0.8963905E-004  0.9374867E+02  0.7546771E-02  0.1175093E+00
         22   -1    0    0    0    0  0.00000000000E+00  0.00000000000E+00  0.35649727852E+02  0.35649727852E+02  0.00000000000E+00 0.  1.
         22   -1    0    0    0    0 -0.00000000000E+00 -0.00000000000E+00 -0.11315392348E+04  0.11315392348E+04  0.00000000000E+00 0. -1.
         24    1    1    2    0    0  0.28369558857E+02 -0.38945673608E+02 -0.10640635522E+04  0.10681854036E+04  0.80419002446E+02 0. -1.
        -24    1    1    2    0    0 -0.28369558857E+02  0.38945673608E+02 -0.31825954787E+02  0.99003559103E+02  0.80419002446E+02 0.  1.
<mgrwt>
<rscale>  0 0.93748671E+02</rscale>
<asrwt>0</asrwt>
<pdfrwt beam="1">  1       22 0.71297502E+00 0.93748671E+02</pdfrwt>
<pdfrwt beam="2">0</pdfrwt>
<totfact> 0.69043476E-03</totfact>
</mgrwt>
</event>
<event>
 4    1  0.8963905E-004  0.9453900E+02  0.7546771E-02  0.1173614E+00
         22   -1    0    0    0    0  0.00000000000E+00  0.00000000000E+00  0.41108295605E+02  0.41108295605E+02  0.00000000000E+00 0.  1.
         22   -1    0    0    0    0 -0.00000000000E+00 -0.00000000000E+00 -0.29634555574E+03  0.29634555574E+03  0.00000000000E+00 0. -1.
         24    1    1    2    0    0  0.42192882246E+02 -0.26271050415E+02 -0.40541615607E+02  0.10286518338E+03  0.80419002446E+02 0.  1.
        -24    1    1    2    0    0 -0.42192882246E+02  0.26271050415E+02 -0.21469564453E+03  0.23458866796E+03  0.80419002446E+02 0. -1.
<mgrwt>
<rscale>  0 0.94539004E+02</rscale>
<asrwt>0</asrwt>
<pdfrwt beam="1">  1       22 0.82216539E+00 0.94539004E+02</pdfrwt>
<pdfrwt beam="2">0</pdfrwt>
<totfact> 0.64493098E-02</totfact>
</mgrwt>
</event>
<event>
 4    1  0.8963905E-004  0.8332574E+02  0.7546771E-02  0.1196271E+00
         22   -1    0    0    0    0  0.00000000000E+00  0.00000000000E+00  0.21605452545E+02  0.21605452545E+02  0.00000000000E+00 0. -1.
         22   -1    0    0    0    0 -0.00000000000E+00 -0.00000000000E+00 -0.15642286176E+04  0.15642286176E+04  0.00000000000E+00 0. -1.
         24    1    1    2    0    0  0.19880263334E+02 -0.89854225110E+01 -0.14781006744E+04  0.14804474940E+04  0.80419002446E+02 0. -1.
        -24    1    1    2    0    0 -0.19880263334E+02  0.89854225110E+01 -0.64522490627E+02  0.10538657618E+03  0.80419002446E+02 0. -1.
<mgrwt>
<rscale>  0 0.83325738E+02</rscale>
<asrwt>0</asrwt>
<pdfrwt beam="1">  1       22 0.43208532E+00 0.83325738E+02</pdfrwt>
<pdfrwt beam="2">0</pdfrwt>
<totfact> 0.68416629E-03</totfact>
</mgrwt>
</event>
<event>
 4    1  0.8963905E-004  0.8043180E+02  0.7546771E-02  0.1202776E+00
         22   -1    0    0    0    0  0.00000000000E+00  0.00000000000E+00  0.19681283306E+02  0.19681283306E+02  0.00000000000E+00 0.  1.
         22   -1    0    0    0    0 -0.00000000000E+00 -0.00000000000E+00 -0.34831020776E+03  0.34831020776E+03  0.00000000000E+00 0. -1.
         24    1    1    2    0    0  0.13852432606E+01  0.37430446595E+00 -0.12065836746E+03  0.14500936727E+03  0.80419002446E+02 0.  1.
        -24    1    1    2    0    0 -0.13852432606E+01 -0.37430446595E+00 -0.20797055699E+03  0.22298212379E+03  0.80419002446E+02 0. -1.
<mgrwt>
<rscale>  0 0.80431803E+02</rscale>
<asrwt>0</asrwt>
<pdfrwt beam="1">  1       22 0.39363289E+00 0.80431803E+02</pdfrwt>
<pdfrwt beam="2">0</pdfrwt>
<totfact> 0.14948453E-01</totfact>
</mgrwt>
</event>
<event>
 4    1  0.8963905E-004  0.8774655E+02  0.7546771E-02  0.1186887E+00
         22   -1    0    0    0    0  0.00000000000E+00  0.00000000000E+00  0.30469583676E+02  0.30469583676E+02  0.00000000000E+00 0. -1.
         22   -1    0    0    0    0 -0.00000000000E+00 -0.00000000000E+00 -0.51685872555E+03  0.51685872555E+03  0.00000000000E+00 0. -1.
         24    1    1    2    0    0  0.39312903072E+01 -0.34882470918E+02 -0.43884014521E+03  0.44752668169E+03  0.80419002446E+02 0. -1.
        -24    1    1    2    0    0 -0.39312903072E+01  0.34882470918E+02 -0.47548996662E+02  0.99801627536E+02  0.80419002446E+02 0. -1.
<mgrwt>
<rscale>  0 0.87746554E+02</rscale>
<asrwt>0</asrwt>
<pdfrwt beam="1">  1       22 0.60938279E+00 0.87746554E+02</pdfrwt>
<pdfrwt beam="2">0</pdfrwt>
<totfact> 0.40372826E-02</totfact>
</mgrwt>
</event>
<event>
 4    1  0.8963905E-004  0.9312373E+02  0.7546771E-02  0.1176274E+00
         22   -1    0    0    0    0  0.00000000000E+00  0.00000000000E+00  0.13134488440E+02  0.13134488440E+02  0.00000000000E+00 0. -1.
         22   -1    0    0    0    0 -0.00000000000E+00 -0.00000000000E+00 -0.11413358721E+04  0.11413358721E+04  0.00000000000E+00 0.  1.
         24    1    1    2    0    0 -0.43182772059E+02  0.18440755470E+02 -0.93886475263E+03  0.94347180825E+03  0.80419002446E+02 0.  1.
        -24    1    1    2    0    0  0.43182772059E+02 -0.18440755470E+02 -0.18933663099E+03  0.21099855226E+03  0.80419002446E+02 0. -1.
<mgrwt>
<rscale>  0 0.93123731E+02</rscale>
<asrwt>0</asrwt>
<pdfrwt beam="1">  1       22 0.26268406E+00 0.93123731E+02</pdfrwt>
<pdfrwt beam="2">0</pdfrwt>
<totfact> 0.29058939E-02</totfact>
</mgrwt>
</event>
<event>
 4    1  0.8963905E-004  0.9035596E+02  0.7546771E-02  0.1181633E+00
         22   -1    0    0    0    0  0.00000000000E+00  0.00000000000E+00  0.17943830487E+02  0.17943830487E+02  0.00000000000E+00 0. -1.
         22   -1    0    0    0    0 -0.00000000000E+00 -0.00000000000E+00 -0.47751687346E+03  0.47751687346E+03  0.00000000000E+00 0.  1.
         24    1    1    2    0    0  0.55796938587E+01  0.40814839129E+02 -0.17597573058E+03  0.19781723328E+03  0.80419002446E+02 0.  0.
        -24    1    1    2    0    0 -0.55796938587E+01 -0.40814839129E+02 -0.28359731239E+03  0.29764347066E+03  0.80419002446E+02 0.  1.
<mgrwt>
<rscale>  0 0.90355963E+02</rscale>
<asrwt>0</asrwt>
<pdfrwt beam="1">  1       22 0.35887030E+00 0.90355963E+02</pdfrwt>
<pdfrwt beam="2">0</pdfrwt>
<totfact> 0.10196513E-01</totfact>
</mgrwt>
</event>
<event>
 4    1  0.8963905E-004  0.8790538E+02  0.7546771E-02  0.1186561E+00
         22   -1    0    0    0    0  0.00000000000E+00  0.00000000000E+00  0.34158152462E+02  0.34158152462E+02  0.00000000000E+00 0. -1.
         22   -1    0    0    0    0 -0.00000000000E+00 -0.00000000000E+00 -0.35509426049E+03  0.35509426049E+03  0.00000000000E+00 0. -1.
         24    1    1    2    0    0  0.73760931310E+01 -0.34723674579E+02 -0.27771666312E+03  0.29129692970E+03  0.80419002446E+02 0. -1.
        -24    1    1    2    0    0 -0.73760931310E+01  0.34723674579E+02 -0.43219444911E+02  0.97955483251E+02  0.80419002446E+02 0. -1.
<mgrwt>
<rscale>  0 0.87905383E+02</rscale>
<asrwt>0</asrwt>
<pdfrwt beam="1">  1       22 0.68316713E+00 0.87905383E+02</pdfrwt>
<pdfrwt beam="2">0</pdfrwt>
<totfact> 0.63698792E-02</totfact>
</mgrwt>
</event>
<event>
 4    1  0.8963905E-004  0.1328776E+03  0.7546771E-02  0.1116676E+00
         22   -1    0    0    0    0  0.00000000000E+00  0.00000000000E+00  0.42832707501E+02  0.42832707501E+02  0.00000000000E+00 0.  1.
         22   -1    0    0    0    0 -0.00000000000E+00 -0.00000000000E+00 -0.83637565956E+03  0.83637565956E+03  0.00000000000E+00 0. -1.
         24    1    1    2    0    0 -0.67280588470E+02  0.81624558990E+02 -0.70982903435E+03  0.72215906847E+03  0.80419002446E+02 0. -1.
        -24    1    1    2    0    0  0.67280588470E+02 -0.81624558990E+02 -0.83713917710E+02  0.15704929859E+03  0.80419002446E+02 0.  1.
<mgrwt>
<rscale>  0 0.13287762E+03</rscale>
<asrwt>0</asrwt>
<pdfrwt beam="1">  1       22 0.85665889E+00 0.13287762E+03</pdfrwt>
<pdfrwt beam="2">0</pdfrwt>
<totfact> 0.10151541E-02</totfact>
</mgrwt>
</event>
<event>
 4    1  0.8963905E-004  0.9254751E+02  0.7546771E-02  0.1177373E+00
         22   -1    0    0    0    0  0.00000000000E+00  0.00000000000E+00  0.33867793844E+02  0.33867793844E+02  0.00000000000E+00 0. -1.
         22   -1    0    0    0    0 -0.00000000000E+00 -0.00000000000E+00 -0.64472334497E+03  0.64472334497E+03  0.00000000000E+00 0.  1.
         24    1    1    2    0    0  0.31322422818E+02  0.33417524481E+02 -0.56993569137E+03  0.57740084288E+03  0.80419002446E+02 0.  1.
        -24    1    1    2    0    0 -0.31322422818E+02 -0.33417524481E+02 -0.40919859759E+02  0.10119029593E+03  0.80419002446E+02 0. -1.
<mgrwt>
<rscale>  0 0.92547507E+02</rscale>
<asrwt>0</asrwt>
<pdfrwt beam="1">  1       22 0.67737050E+00 0.92547507E+02</pdfrwt>
<pdfrwt beam="2">0</pdfrwt>
<totfact> 0.23161289E-02</totfact>
</mgrwt>
</event>
<event>
 4    1  0.8963905E-004  0.1044055E+03  0.7546771E-02  0.1156406E+00
         22   -1    0    0    0    0  0.00000000000E+00  0.00000000000E+00  0.58518888437E+01  0.58518888437E+01  0.00000000000E+00 0.  1.
         22   -1    0    0    0    0 -0.00000000000E+00 -0.00000000000E+00 -0.23178640389E+04  0.23178640389E+04  0.00000000000E+00 0.  1.
         24    1    1    2    0    0  0.21668693845E+02  0.62958388803E+02 -0.64116018957E+03  0.64960518445E+03  0.80419002446E+02 0.  1.
        -24    1    1    2    0    0 -0.21668693845E+02 -0.62958388803E+02 -0.16708519604E+04  0.16741107433E+04  0.80419002446E+02 0.  1.
<mgrwt>
<rscale>  0 0.10440549E+03</rscale>
<asrwt>0</asrwt>
<pdfrwt beam="1">  1       22 0.11705381E+00 0.10440549E+03</pdfrwt>
<pdfrwt beam="2">0</pdfrwt>
<totfact> 0.12842740E-02</totfact>
</mgrwt>
</event>
<event>
 4    1  0.8963905E-004  0.9894800E+02  0.7546771E-02  0.1165648E+00
         22   -1    0    0    0    0  0.00000000000E+00  0.00000000000E+00  0.76176111432E+01  0.76176111432E+01  0.00000000000E+00 0.  1.
         22   -1    0    0    0    0 -0.00000000000E+00 -0.00000000000E+00 -0.16450983043E+04  0.16450983043E+04  0.00000000000E+00 0.  1.
         24    1    1    2    0    0 -0.42317418857E+01 -0.57494193995E+02 -0.12052127189E+04  0.12092677138E+04  0.80419002446E+02 0.  1.
        -24    1    1    2    0    0  0.42317418857E+01  0.57494193995E+02 -0.43226797424E+03  0.44344820159E+03  0.80419002446E+02 0.  1.
<mgrwt>
<rscale>  0 0.98947996E+02</rscale>
<asrwt>0</asrwt>
<pdfrwt beam="1">  1       22 0.15235907E+00 0.98947996E+02</pdfrwt>
<pdfrwt beam="2">0</pdfrwt>
<totfact> 0.24670789E-02</totfact>
</mgrwt>
</event>
<event>
 4    1  0.8963905E-004  0.1008147E+03  0.7546771E-02  0.1162413E+00
         22   -1    0    0    0    0  0.00000000000E+00  0.00000000000E+00  0.59266953212E+01  0.59266953212E+01  0.00000000000E+00 0.  1.
         22   -1    0    0    0    0 -0.00000000000E+00 -0.00000000000E+00 -0.17201656260E+04  0.17201656260E+04  0.00000000000E+00 0. -1.
         24    1    1    2    0    0 -0.29157236718E+02  0.53350235852E+02 -0.80930692003E+03  0.81556195282E+03  0.80419002446E+02 0.  0.
        -24    1    1    2    0    0  0.29157236718E+02 -0.53350235852E+02 -0.90493201063E+03  0.91053036849E+03  0.80419002446E+02 0.  0.
<mgrwt>
<rscale>  0 0.10081472E+03</rscale>
<asrwt>0</asrwt>
<pdfrwt beam="1">  1       22 0.11856487E+00 0.10081472E+03</pdfrwt>
<pdfrwt beam="2">0</pdfrwt>
<totfact> 0.29839508E-02</totfact>
</mgrwt>
</event>
<event>
 4    1  0.8963905E-004  0.8201722E+02  0.7546771E-02  0.1199175E+00
         22   -1    0    0    0    0  0.00000000000E+00  0.00000000000E+00  0.45464766242E+01  0.45464766242E+01  0.00000000000E+00 0.  1.
         22   -1    0    0    0    0 -0.00000000000E+00 -0.00000000000E+00 -0.27738760558E+04  0.27738760558E+04  0.00000000000E+00 0. -1.
         24    1    1    2    0    0  0.16023889493E+02  0.16862986032E+01 -0.23336151114E+04  0.23350559550E+04  0.80419002446E+02 0. -1.
        -24    1    1    2    0    0 -0.16023889493E+02 -0.16862986032E+01 -0.43571446775E+03  0.44336657745E+03  0.80419002446E+02 0.  1.
<mgrwt>
<rscale>  0 0.82017221E+02</rscale>
<asrwt>0</asrwt>
<pdfrwt beam="1">  1       22 0.90862776E-01 0.82017221E+02</pdfrwt>
<pdfrwt beam="2">0</pdfrwt>
<totfact> 0.89698022E-03</totfact>
</mgrwt>
</event>
<event>
 4    1  0.8963905E-004  0.1057888E+03  0.7546771E-02  0.1154163E+00
         22   -1    0    0    0    0  0.00000000000E+00  0.00000000000E+00  0.44754898303E+02  0.44754898303E+02  0.00000000000E+00 0.  1.
         22   -1    0    0    0    0 -0.00000000000E+00 -0.00000000000E+00 -0.22921299930E+04  0.22921299930E+04  0.00000000000E+00 0. -1.
         24    1    1    2    0    0 -0.66927995674E+02 -0.15642606067E+02 -0.20819987970E+02  0.10781806705E+03  0.80419002446E+02 0.  1.
        -24    1    1    2    0    0  0.66927995674E+02  0.15642606067E+02 -0.22265551067E+04  0.22290668243E+04  0.80419002446E+02 0. -1.
<mgrwt>
<rscale>  0 0.10578877E+03</rscale>
<asrwt>0</asrwt>
<pdfrwt beam="1">  1       22 0.89514722E+00 0.10578877E+03</pdfrwt>
<pdfrwt beam="2">0</pdfrwt>
<totfact> 0.79581789E-04</totfact>
</mgrwt>
</event>
<event>
 4    1  0.8963905E-004  0.1075517E+03  0.7546771E-02  0.1151359E+00
         22   -1    0    0    0    0  0.00000000000E+00  0.00000000000E+00  0.24623364804E+02  0.24623364804E+02  0.00000000000E+00 0.  1.
         22   -1    0    0    0    0 -0.00000000000E+00 -0.00000000000E+00 -0.87680510216E+03  0.87680510216E+03  0.00000000000E+00 0.  1.
         24    1    1    2    0    0 -0.12023624818E+02 -0.70395988852E+02 -0.11900180058E+03  0.16040201774E+03  0.80419002446E+02 0.  1.
        -24    1    1    2    0    0  0.12023624818E+02  0.70395988852E+02 -0.73317993678E+03  0.74102644922E+03  0.80419002446E+02 0.  1.
<mgrwt>
<rscale>  0 0.10755175E+03</rscale>
<asrwt>0</asrwt>
<pdfrwt beam="1">  1       22 0.49247899E+00 0.10755175E+03</pdfrwt>
<pdfrwt beam="2">0</pdfrwt>
<totfact> 0.21013367E-02</totfact>
</mgrwt>
</event>
<event>
 4    1  0.8963905E-004  0.8112665E+02  0.7546771E-02  0.1201186E+00
         22   -1    0    0    0    0  0.00000000000E+00  0.00000000000E+00  0.83848476986E+01  0.83848476986E+01  0.00000000000E+00 0. -1.
         22   -1    0    0    0    0 -0.00000000000E+00 -0.00000000000E+00 -0.79314296742E+03  0.79314296742E+03  0.00000000000E+00 0.  1.
         24    1    1    2    0    0 -0.65506078186E+00 -0.10671820496E+02 -0.35160182307E+03  0.36083981875E+03  0.80419002446E+02 0. -1.
        -24    1    1    2    0    0  0.65506078186E+00  0.10671820496E+02 -0.43315629666E+03  0.44068799637E+03  0.80419002446E+02 0.  0.
<mgrwt>
<rscale>  0 0.81126647E+02</rscale>
<asrwt>0</asrwt>
<pdfrwt beam="1">  1       22 0.16769576E+00 0.81126647E+02</pdfrwt>
<pdfrwt beam="2">0</pdfrwt>
<totfact> 0.10936873E-01</totfact>
</mgrwt>
</event>
<event>
 4    1  0.8963905E-004  0.1030769E+03  0.7546771E-02  0.1158597E+00
         22   -1    0    0    0    0  0.00000000000E+00  0.00000000000E+00  0.65055208369E+01  0.65055208369E+01  0.00000000000E+00 0.  1.
         22   -1    0    0    0    0 -0.00000000000E+00 -0.00000000000E+00 -0.21344869885E+04  0.21344869885E+04  0.00000000000E+00 0.  1.
         24    1    1    2    0    0  0.43476401030E+02  0.47617526294E+02 -0.54521469462E+03  0.55487287323E+03  0.80419002446E+02 0.  1.
        -24    1    1    2    0    0 -0.43476401030E+02 -0.47617526294E+02 -0.15827667731E+04  0.15861196361E+04  0.80419002446E+02 0.  1.
<mgrwt>
<rscale>  0 0.10307688E+03</rscale>
<asrwt>0</asrwt>
<pdfrwt beam="1">  1       22 0.13006332E+00 0.10307688E+03</pdfrwt>
<pdfrwt beam="2">0</pdfrwt>
<totfact> 0.14594231E-02</totfact>
</mgrwt>
</event>
<event>
 4    1  0.8963905E-004  0.8523130E+02  0.7546771E-02  0.1192148E+00
         22   -1    0    0    0    0  0.00000000000E+00  0.00000000000E+00  0.44764607196E+02  0.44764607196E+02  0.00000000000E+00 0.  1.
         22   -1    0    0    0    0 -0.00000000000E+00 -0.00000000000E+00 -0.56166233393E+03  0.56166233393E+03  0.00000000000E+00 0.  1.
         24    1    1    2    0    0 -0.28466986022E+01  0.28090128760E+02 -0.51413405497E+03  0.52115084328E+03  0.80419002446E+02 0.  1.
        -24    1    1    2    0    0  0.28466986022E+01 -0.28090128760E+02 -0.27636717656E+01  0.85276097839E+02  0.80419002446E+02 0.  1.
<mgrwt>
<rscale>  0 0.85231303E+02</rscale>
<asrwt>0</asrwt>
<pdfrwt beam="1">  1       22 0.89528490E+00 0.85231303E+02</pdfrwt>
<pdfrwt beam="2">0</pdfrwt>
<totfact> 0.19322083E-02</totfact>
</mgrwt>
</event>
<event>
 4    1  0.8963905E-004  0.9885104E+02  0.7546771E-02  0.1165818E+00
         22   -1    0    0    0    0  0.00000000000E+00  0.00000000000E+00  0.11289275904E+02  0.11289275904E+02  0.00000000000E+00 0. -1.
         22   -1    0    0    0    0 -0.00000000000E+00 -0.00000000000E+00 -0.88647296861E+03  0.88647296861E+03  0.00000000000E+00 0. -1.
         24    1    1    2    0    0  0.10414745171E+02  0.56531806639E+02 -0.50653999978E+03  0.51609524258E+03  0.80419002446E+02 0.  0.
        -24    1    1    2    0    0 -0.10414745171E+02 -0.56531806639E+02 -0.36864369292E+03  0.38166700194E+03  0.80419002446E+02 0.  0.
<mgrwt>
<rscale>  0 0.98851040E+02</rscale>
<asrwt>0</asrwt>
<pdfrwt beam="1">  1       22 0.22578392E+00 0.98851040E+02</pdfrwt>
<pdfrwt beam="2">0</pdfrwt>
<totfact> 0.60860669E-02</totfact>
</mgrwt>
</event>
<event>
 4    1  0.8963905E-004  0.9857820E+02  0.7546771E-02  0.1166298E+00
         22   -1    0    0    0    0  0.00000000000E+00  0.00000000000E+00  0.48610121346E+02  0.48610121346E+02  0.00000000000E+00 0. -1.
         22   -1    0    0    0    0 -0.00000000000E+00 -0.00000000000E+00 -0.23648620321E+03  0.23648620321E+03  0.00000000000E+00 0.  1.
         24    1    1    2    0    0 -0.14037435365E+02 -0.55257549346E+02 -0.37877607924E+02  0.10560480807E+03  0.80419002446E+02 0. -1.
        -24    1    1    2    0    0  0.14037435365E+02  0.55257549346E+02 -0.14999847394E+03  0.17949151649E+03  0.80419002446E+02 0.  0.
<mgrwt>
<rscale>  0 0.98578204E+02</rscale>
<asrwt>0</asrwt>
<pdfrwt beam="1">  1       22 0.97220432E+00 0.98578204E+02</pdfrwt>
<pdfrwt beam="2">0</pdfrwt>
<totfact> 0.68734119E-02</totfact>
</mgrwt>
</event>
<event>
 4    1  0.8963905E-004  0.8221572E+02  0.7546771E-02  0.1198730E+00
         22   -1    0    0    0    0  0.00000000000E+00  0.00000000000E+00  0.80525315720E+01  0.80525315720E+01  0.00000000000E+00 0.  1.
         22   -1    0    0    0    0 -0.00000000000E+00 -0.00000000000E+00 -0.12710328387E+04  0.12710328387E+04  0.00000000000E+00 0. -1.
         24    1    1    2    0    0  0.11100005123E+02 -0.12999920112E+02 -0.10041737955E+04  0.10075338384E+04  0.80419002446E+02 0. -1.
        -24    1    1    2    0    0 -0.11100005123E+02  0.12999920112E+02 -0.25880651165E+03  0.27155153187E+03  0.80419002446E+02 0.  1.
<mgrwt>
<rscale>  0 0.82215716E+02</rscale>
<asrwt>0</asrwt>
<pdfrwt beam="1">  1       22 0.16105236E+00 0.82215716E+02</pdfrwt>
<pdfrwt beam="2">0</pdfrwt>
<totfact> 0.42397992E-02</totfact>
</mgrwt>
</event>
<event>
 4    1  0.8963905E-004  0.8903404E+02  0.7546771E-02  0.1184269E+00
         22   -1    0    0    0    0  0.00000000000E+00  0.00000000000E+00  0.40892722511E+01  0.40892722511E+01  0.00000000000E+00 0. -1.
         22   -1    0    0    0    0 -0.00000000000E+00 -0.00000000000E+00 -0.23835565487E+04  0.23835565487E+04  0.00000000000E+00 0.  1.
         24    1    1    2    0    0  0.35064819575E+02 -0.15175723424E+02 -0.67387099484E+03  0.67972728193E+03  0.80419002446E+02 0. -1.
        -24    1    1    2    0    0 -0.35064819575E+02  0.15175723424E+02 -0.17055962816E+04  0.17079185390E+04  0.80419002446E+02 0.  0.
<mgrwt>
<rscale>  0 0.89034039E+02</rscale>
<asrwt>0</asrwt>
<pdfrwt beam="1">  1       22 0.81702391E-01 0.89034039E+02</pdfrwt>
<pdfrwt beam="2">0</pdfrwt>
<totfact> 0.17600667E-02</totfact>
</mgrwt>
</event>
<event>
 4    1  0.8963905E-004  0.8570893E+02  0.7546771E-02  0.1191133E+00
         22   -1    0    0    0    0  0.00000000000E+00  0.00000000000E+00  0.27826224137E+02  0.27826224137E+02  0.00000000000E+00 0. -1.
         22   -1    0    0    0    0 -0.00000000000E+00 -0.00000000000E+00 -0.27007805780E+03  0.27007805780E+03  0.00000000000E+00 0.  1.
         24    1    1    2    0    0  0.97802550274E+00 -0.29628502313E+02 -0.98773930811E+02  0.13077580069E+03  0.80419002446E+02 0. -1.
        -24    1    1    2    0    0 -0.97802550274E+00  0.29628502313E+02 -0.14347790285E+03  0.16712848125E+03  0.80419002446E+02 0.  1.
<mgrwt>
<rscale>  0 0.85708930E+02</rscale>
<asrwt>0</asrwt>
<pdfrwt beam="1">  1       22 0.55651897E+00 0.85708930E+02</pdfrwt>
<pdfrwt beam="2">0</pdfrwt>
<totfact> 0.13383366E-01</totfact>
</mgrwt>
</event>
<event>
 4    1  0.8963905E-004  0.8662987E+02  0.7546771E-02  0.1189198E+00
         22   -1    0    0    0    0  0.00000000000E+00  0.00000000000E+00  0.35113299691E+02  0.35113299691E+02  0.00000000000E+00 0. -1.
         22   -1    0    0    0    0 -0.00000000000E+00 -0.00000000000E+00 -0.43446534931E+03  0.43446534931E+03  0.00000000000E+00 0.  1.
         24    1    1    2    0    0  0.27826225286E+02  0.16224030233E+02 -0.36703060538E+03  0.37711563108E+03  0.80419002446E+02 0.  1.
        -24    1    1    2    0    0 -0.27826225286E+02 -0.16224030233E+02 -0.32321444249E+02  0.92463017923E+02  0.80419002446E+02 0. -1.
<mgrwt>
<rscale>  0 0.86629867E+02</rscale>
<asrwt>0</asrwt>
<pdfrwt beam="1">  1       22 0.70227044E+00 0.86629867E+02</pdfrwt>
<pdfrwt beam="2">0</pdfrwt>
<totfact> 0.43736067E-02</totfact>
</mgrwt>
</event>
<event>
 4    1  0.8963905E-004  0.8863375E+02  0.7546771E-02  0.1185078E+00
         22   -1    0    0    0    0  0.00000000000E+00  0.00000000000E+00  0.10456387738E+02  0.10456387738E+02  0.00000000000E+00 0. -1.
         22   -1    0    0    0    0 -0.00000000000E+00 -0.00000000000E+00 -0.10849533670E+04  0.10849533670E+04  0.00000000000E+00 0.  1.
         24    1    1    2    0    0  0.34118351797E+02  0.14988806796E+02 -0.84097675633E+03  0.84563458237E+03  0.80419002446E+02 0.  1.
        -24    1    1    2    0    0 -0.34118351797E+02 -0.14988806796E+02 -0.23352022294E+03  0.24977517237E+03  0.80419002446E+02 0.  0.
<mgrwt>
<rscale>  0 0.88633753E+02</rscale>
<asrwt>0</asrwt>
<pdfrwt beam="1">  1       22 0.20913937E+00 0.88633753E+02</pdfrwt>
<pdfrwt beam="2">0</pdfrwt>
<totfact> 0.43629587E-02</totfact>
</mgrwt>
</event>
<event>
 4    1  0.8963905E-004  0.9033923E+02  0.7546771E-02  0.1181666E+00
         22   -1    0    0    0    0  0.00000000000E+00  0.00000000000E+00  0.97883325279E+01  0.97883325279E+01  0.00000000000E+00 0.  1.
         22   -1    0    0    0    0 -0.00000000000E+00 -0.00000000000E+00 -0.84469370061E+03  0.84469370061E+03  0.00000000000E+00 0. -1.
         24    1    1    2    0    0 -0.74998889099E+01  0.40468666819E+02 -0.46604760793E+03  0.47472260335E+03  0.80419002446E+02 0.  1.
        -24    1    1    2    0    0  0.74998889099E+01 -0.40468666819E+02 -0.36885776016E+03  0.37975942979E+03  0.80419002446E+02 0.  0.
<mgrwt>
<rscale>  0 0.90339234E+02</rscale>
<asrwt>0</asrwt>
<pdfrwt beam="1">  1       22 0.19575548E+00 0.90339234E+02</pdfrwt>
<pdfrwt beam="2">0</pdfrwt>
<totfact> 0.80069883E-02</totfact>
</mgrwt>
</event>
<event>
 4    1  0.8963905E-004  0.9188659E+02  0.7546771E-02  0.1178644E+00
         22   -1    0    0    0    0  0.00000000000E+00  0.00000000000E+00  0.10906143889E+02  0.10906143889E+02  0.00000000000E+00 0. -1.
         22   -1    0    0    0    0 -0.00000000000E+00 -0.00000000000E+00 -0.77895450311E+03  0.77895450311E+03  0.00000000000E+00 0. -1.
         24    1    1    2    0    0  0.55349952677E+01 -0.44105488120E+02 -0.35305385756E+03  0.36481525811E+03  0.80419002446E+02 0. -1.
        -24    1    1    2    0    0 -0.55349952677E+01  0.44105488120E+02 -0.41499450166E+03  0.42504538889E+03  0.80419002446E+02 0. -1.
<mgrwt>
<rscale>  0 0.91886594E+02</rscale>
<asrwt>0</asrwt>
<pdfrwt beam="1">  1       22 0.21814847E+00 0.91886594E+02</pdfrwt>
<pdfrwt beam="2">0</pdfrwt>
<totfact> 0.81903108E-02</totfact>
</mgrwt>
</event>
<event>
 4    1  0.8963905E-004  0.8374580E+02  0.7546771E-02  0.1195351E+00
         22   -1    0    0    0    0  0.00000000000E+00  0.00000000000E+00  0.11215133904E+02  0.11215133904E+02  0.00000000000E+00 0. -1.
         22   -1    0    0    0    0 -0.00000000000E+00 -0.00000000000E+00 -0.99193686031E+03  0.99193686031E+03  0.00000000000E+00 0.  1.
         24    1    1    2    0    0 -0.23009107824E+02 -0.40894651298E+01 -0.79527988109E+03  0.79967708982E+03  0.80419002446E+02 0.  1.
        -24    1    1    2    0    0  0.23009107824E+02  0.40894651298E+01 -0.18544184532E+03  0.20347490439E+03  0.80419002446E+02 0. -1.
<mgrwt>
<rscale>  0 0.83745798E+02</rscale>
<asrwt>0</asrwt>
<pdfrwt beam="1">  1       22 0.22430432E+00 0.83745798E+02</pdfrwt>
<pdfrwt beam="2">0</pdfrwt>
<totfact> 0.48038501E-02</totfact>
</mgrwt>
</event>
<event>
 4    1  0.8963905E-004  0.8425140E+02  0.7546771E-02  0.1194253E+00
         22   -1    0    0    0    0  0.00000000000E+00  0.00000000000E+00  0.23994823347E+02  0.23994823347E+02  0.00000000000E+00 0.  1.
         22   -1    0    0    0    0 -0.00000000000E+00 -0.00000000000E+00 -0.53002603960E+03  0.53002603960E+03  0.00000000000E+00 0. -1.
         24    1    1    2    0    0  0.23536541976E+02  0.87814070396E+01 -0.43715249620E+03  0.44519726280E+03  0.80419002446E+02 0. -1.
        -24    1    1    2    0    0 -0.23536541976E+02 -0.87814070396E+01 -0.68878720050E+02  0.10882360014E+03  0.80419002446E+02 0.  1.
<mgrwt>
<rscale>  0 0.84251397E+02</rscale>
<asrwt>0</asrwt>
<pdfrwt beam="1">  1       22 0.47989151E+00 0.84251397E+02</pdfrwt>
<pdfrwt beam="2">0</pdfrwt>
<totfact> 0.55315686E-02</totfact>
</mgrwt>
</event>
<event>
 4    1  0.8963905E-004  0.1372682E+03  0.7546771E-02  0.1111533E+00
         22   -1    0    0    0    0  0.00000000000E+00  0.00000000000E+00  0.16531066845E+02  0.16531066845E+02  0.00000000000E+00 0. -1.
         22   -1    0    0    0    0 -0.00000000000E+00 -0.00000000000E+00 -0.21398390425E+04  0.21398390425E+04  0.00000000000E+00 0.  1.
         24    1    1    2    0    0 -0.10415032637E+03  0.39090141708E+02 -0.17987185138E+04  0.18039486793E+04  0.80419002446E+02 0.  1.
        -24    1    1    2    0    0  0.10415032637E+03 -0.39090141708E+02 -0.32458946185E+03  0.35242143005E+03  0.80419002446E+02 0. -1.
<mgrwt>
<rscale>  0 0.13726815E+03</rscale>
<asrwt>0</asrwt>
<pdfrwt beam="1">  1       22 0.33060674E+00 0.13726815E+03</pdfrwt>
<pdfrwt beam="2">0</pdfrwt>
<totfact> 0.44458044E-03</totfact>
</mgrwt>
</event>
<event>
 4    1  0.8963905E-004  0.9486213E+02  0.7546771E-02  0.1173014E+00
         22   -1    0    0    0    0  0.00000000000E+00  0.00000000000E+00  0.28912002317E+02  0.28912002317E+02  0.00000000000E+00 0. -1.
         22   -1    0    0    0    0 -0.00000000000E+00 -0.00000000000E+00 -0.54570026236E+03  0.54570026236E+03  0.00000000000E+00 0.  1.
         24    1    1    2    0    0  0.49180385555E+02 -0.10625299867E+02 -0.70075027568E+02  0.11793783432E+03  0.80419002446E+02 0. -1.
        -24    1    1    2    0    0 -0.49180385555E+02  0.10625299867E+02 -0.44671323247E+03  0.45667443036E+03  0.80419002446E+02 0.  1.
<mgrwt>
<rscale>  0 0.94862128E+02</rscale>
<asrwt>0</asrwt>
<pdfrwt beam="1">  1       22 0.57824932E+00 0.94862128E+02</pdfrwt>
<pdfrwt beam="2">0</pdfrwt>
<totfact> 0.40013631E-02</totfact>
</mgrwt>
</event>
<event>
 4    1  0.8963905E-004  0.1448896E+03  0.7546771E-02  0.1103089E+00
         22   -1    0    0    0    0  0.00000000000E+00  0.00000000000E+00  0.42659768940E+02  0.42659768940E+02  0.00000000000E+00 0. -1.
         22   -1    0    0    0    0 -0.00000000000E+00 -0.00000000000E+00 -0.82758538128E+03  0.82758538128E+03  0.00000000000E+00 0.  1.
         24    1    1    2    0    0  0.11385894547E+03 -0.39521321156E+02 -0.11542443956E+03  0.18524527387E+03  0.80419002446E+02 0. -1.
        -24    1    1    2    0    0 -0.11385894547E+03  0.39521321156E+02 -0.66950117278E+03  0.68499987634E+03  0.80419002446E+02 0.  1.
<mgrwt>
<rscale>  0 0.14488965E+03</rscale>
<asrwt>0</asrwt>
<pdfrwt beam="1">  1       22 0.85320164E+00 0.14488965E+03</pdfrwt>
<pdfrwt beam="2">0</pdfrwt>
<totfact> 0.10509646E-02</totfact>
</mgrwt>
</event>
<event>
 4    1  0.8963905E-004  0.8446663E+02  0.7546771E-02  0.1193788E+00
         22   -1    0    0    0    0  0.00000000000E+00  0.00000000000E+00  0.39697699994E+02  0.39697699994E+02  0.00000000000E+00 0.  1.
         22   -1    0    0    0    0 -0.00000000000E+00 -0.00000000000E+00 -0.31047249332E+03  0.31047249332E+03  0.00000000000E+00 0.  1.
         24    1    1    2    0    0 -0.25179663091E+02  0.57775182117E+01 -0.21766888087E+02  0.87226191717E+02  0.80419002446E+02 0.  1.
        -24    1    1    2    0    0  0.25179663091E+02 -0.57775182117E+01 -0.24900790524E+03  0.26294400160E+03  0.80419002446E+02 0.  1.
<mgrwt>
<rscale>  0 0.84466627E+02</rscale>
<asrwt>0</asrwt>
<pdfrwt beam="1">  1       22 0.79395178E+00 0.84466627E+02</pdfrwt>
<pdfrwt beam="2">0</pdfrwt>
<totfact> 0.62570676E-02</totfact>
</mgrwt>
</event>
<event>
 4    1  0.8963905E-004  0.1052492E+03  0.7546771E-02  0.1155033E+00
         22   -1    0    0    0    0  0.00000000000E+00  0.00000000000E+00  0.36794359759E+02  0.36794359759E+02  0.00000000000E+00 0. -1.
         22   -1    0    0    0    0 -0.00000000000E+00 -0.00000000000E+00 -0.47208533397E+03  0.47208533397E+03  0.00000000000E+00 0. -1.
         24    1    1    2    0    0 -0.50439642218E+02  0.45453494234E+02 -0.37079027060E+03  0.38543847547E+03  0.80419002446E+02 0. -1.
        -24    1    1    2    0    0  0.50439642218E+02 -0.45453494234E+02 -0.64500703614E+02  0.12344121826E+03  0.80419002446E+02 0. -1.
<mgrwt>
<rscale>  0 0.10524920E+03</rscale>
<asrwt>0</asrwt>
<pdfrwt beam="1">  1       22 0.73590111E+00 0.10524920E+03</pdfrwt>
<pdfrwt beam="2">0</pdfrwt>
<totfact> 0.35968860E-02</totfact>
</mgrwt>
</event>
<event>
 4    1  0.8963905E-004  0.1231854E+03  0.7546771E-02  0.1128851E+00
         22   -1    0    0    0    0  0.00000000000E+00  0.00000000000E+00  0.26316983027E+02  0.26316983027E+02  0.00000000000E+00 0. -1.
         22   -1    0    0    0    0 -0.00000000000E+00 -0.00000000000E+00 -0.88419154771E+03  0.88419154771E+03  0.00000000000E+00 0.  1.
         24    1    1    2    0    0 -0.73366397893E+01 -0.93024711148E+02 -0.69744754413E+03  0.70824269564E+03  0.80419002446E+02 0.  1.
        -24    1    1    2    0    0  0.73366397893E+01  0.93024711148E+02 -0.16042702056E+03  0.20226583510E+03  0.80419002446E+02 0. -1.
<mgrwt>
<rscale>  0 0.12318539E+03</rscale>
<asrwt>0</asrwt>
<pdfrwt beam="1">  1       22 0.52633969E+00 0.12318539E+03</pdfrwt>
<pdfrwt beam="2">0</pdfrwt>
<totfact> 0.18897575E-02</totfact>
</mgrwt>
</event>
<event>
 4    1  0.8963905E-004  0.8272112E+02  0.7546771E-02  0.1197605E+00
         22   -1    0    0    0    0  0.00000000000E+00  0.00000000000E+00  0.16956340629E+02  0.16956340629E+02  0.00000000000E+00 0.  1.
         22   -1    0    0    0    0 -0.00000000000E+00 -0.00000000000E+00 -0.47898319224E+03  0.47898319224E+03  0.00000000000E+00 0. -1.
         24    1    1    2    0    0  0.84009132778E+01  0.17464017637E+02 -0.13260981837E+03  0.15629506435E+03  0.80419002446E+02 0.  1.
        -24    1    1    2    0    0 -0.84009132778E+01 -0.17464017637E+02 -0.32941703324E+03  0.33964446852E+03  0.80419002446E+02 0. -1.
<mgrwt>
<rscale>  0 0.82721117E+02</rscale>
<asrwt>0</asrwt>
<pdfrwt beam="1">  1       22 0.33913403E+00 0.82721117E+02</pdfrwt>
<pdfrwt beam="2">0</pdfrwt>
<totfact> 0.10909830E-01</totfact>
</mgrwt>
</event>
<event>
 4    1  0.8963905E-004  0.1244575E+03  0.7546771E-02  0.1127184E+00
         22   -1    0    0    0    0  0.00000000000E+00  0.00000000000E+00  0.26989134496E+02  0.26989134496E+02  0.00000000000E+00 0.  1.
         22   -1    0    0    0    0 -0.00000000000E+00 -0.00000000000E+00 -0.97601036254E+03  0.97601036254E+03  0.00000000000E+00 0. -1.
         24    1    1    2    0    0  0.73576375021E+01 -0.94701153889E+02 -0.79639820261E+03  0.80606436247E+03  0.80419002446E+02 0. -1.
        -24    1    1    2    0    0 -0.73576375021E+01  0.94701153889E+02 -0.15262302544E+03  0.19693513456E+03  0.80419002446E+02 0.  1.
<mgrwt>
<rscale>  0 0.12445746E+03</rscale>
<asrwt>0</asrwt>
<pdfrwt beam="1">  1       22 0.53979253E+00 0.12445746E+03</pdfrwt>
<pdfrwt beam="2">0</pdfrwt>
<totfact> 0.14850734E-02</totfact>
</mgrwt>
</event>
<event>
 4    1  0.8963905E-004  0.9139835E+02  0.7546771E-02  0.1179590E+00
         22   -1    0    0    0    0  0.00000000000E+00  0.00000000000E+00  0.30718599463E+02  0.30718599463E+02  0.00000000000E+00 0. -1.
         22   -1    0    0    0    0 -0.00000000000E+00 -0.00000000000E+00 -0.28653461015E+03  0.28653461015E+03  0.00000000000E+00 0.  1.
         24    1    1    2    0    0 -0.39894888394E+02 -0.17170939990E+02 -0.16370633418E+03  0.18749246146E+03  0.80419002446E+02 0.  1.
        -24    1    1    2    0    0  0.39894888394E+02  0.17170939990E+02 -0.92109676512E+02  0.12976074815E+03  0.80419002446E+02 0.  0.
<mgrwt>
<rscale>  0 0.91398355E+02</rscale>
<asrwt>0</asrwt>
<pdfrwt beam="1">  1       22 0.61436952E+00 0.91398355E+02</pdfrwt>
<pdfrwt beam="2">0</pdfrwt>
<totfact> 0.10558992E-01</totfact>
</mgrwt>
</event>
<event>
 4    1  0.8963905E-004  0.1133174E+03  0.7546771E-02  0.1142591E+00
         22   -1    0    0    0    0  0.00000000000E+00  0.00000000000E+00  0.23389358749E+02  0.23389358749E+02  0.00000000000E+00 0. -1.
         22   -1    0    0    0    0 -0.00000000000E+00 -0.00000000000E+00 -0.55022917244E+03  0.55022917244E+03  0.00000000000E+00 0. -1.
         24    1    1    2    0    0  0.70440680243E+01 -0.79523523094E+02 -0.24987997639E+03  0.27437351945E+03  0.80419002446E+02 0. -1.
        -24    1    1    2    0    0 -0.70440680243E+01  0.79523523094E+02 -0.27695983730E+03  0.29924501174E+03  0.80419002446E+02 0. -1.
<mgrwt>
<rscale>  0 0.11331737E+03</rscale>
<asrwt>0</asrwt>
<pdfrwt beam="1">  1       22 0.46777272E+00 0.11331737E+03</pdfrwt>
<pdfrwt beam="2">0</pdfrwt>
<totfact> 0.55106446E-02</totfact>
</mgrwt>
</event>
<event>
 4    1  0.8963905E-004  0.8454647E+02  0.7546771E-02  0.1193615E+00
         22   -1    0    0    0    0  0.00000000000E+00  0.00000000000E+00  0.13692881474E+02  0.13692881474E+02  0.00000000000E+00 0.  1.
         22   -1    0    0    0    0 -0.00000000000E+00 -0.00000000000E+00 -0.67230657897E+03  0.67230657897E+03  0.00000000000E+00 0. -1.
         24    1    1    2    0    0 -0.73433043962E+01  0.25039292158E+02 -0.16714280916E+03  0.18730943617E+03  0.80419002446E+02 0.  1.
        -24    1    1    2    0    0  0.73433043962E+01 -0.25039292158E+02 -0.49147088834E+03  0.49869002428E+03  0.80419002446E+02 0.  0.
<mgrwt>
<rscale>  0 0.84546474E+02</rscale>
<asrwt>0</asrwt>
<pdfrwt beam="1">  1       22 0.27384249E+00 0.84546474E+02</pdfrwt>
<pdfrwt beam="2">0</pdfrwt>
<totfact> 0.79821158E-02</totfact>
</mgrwt>
</event>
<event>
 4    1  0.8963905E-004  0.8545240E+02  0.7546771E-02  0.1191677E+00
         22   -1    0    0    0    0  0.00000000000E+00  0.00000000000E+00  0.59435326087E+01  0.59435326087E+01  0.00000000000E+00 0.  1.
         22   -1    0    0    0    0 -0.00000000000E+00 -0.00000000000E+00 -0.17785032653E+04  0.17785032653E+04  0.00000000000E+00 0. -1.
         24    1    1    2    0    0 -0.28545097378E+02 -0.44804105416E+01 -0.39014832808E+03  0.39939683339E+03  0.80419002446E+02 0.  1.
        -24    1    1    2    0    0  0.28545097378E+02  0.44804105416E+01 -0.13824114046E+04  0.13850499645E+04  0.80419002446E+02 0. -1.
<mgrwt>
<rscale>  0 0.85452400E+02</rscale>
<asrwt>0</asrwt>
<pdfrwt beam="1">  1       22 0.11890832E+00 0.85452400E+02</pdfrwt>
<pdfrwt beam="2">0</pdfrwt>
<totfact> 0.26903663E-02</totfact>
</mgrwt>
</event>
<event>
 4    1  0.8963905E-004  0.1024326E+03  0.7546771E-02  0.1159673E+00
         22   -1    0    0    0    0  0.00000000000E+00  0.00000000000E+00  0.44199333908E+02  0.44199333908E+02  0.00000000000E+00 0.  1.
         22   -1    0    0    0    0 -0.00000000000E+00 -0.00000000000E+00 -0.26820861184E+03  0.26820861184E+03  0.00000000000E+00 0. -1.
         24    1    1    2    0    0  0.13281165222E+02 -0.62038982044E+02 -0.59054328081E+02  0.11823643373E+03  0.80419002446E+02 0.  0.
        -24    1    1    2    0    0 -0.13281165222E+02  0.62038982044E+02 -0.16495494985E+03  0.19417151201E+03  0.80419002446E+02 0. -1.
<mgrwt>
<rscale>  0 0.10243261E+03</rscale>
<asrwt>0</asrwt>
<pdfrwt beam="1">  1       22 0.88398767E+00 0.10243261E+03</pdfrwt>
<pdfrwt beam="2">0</pdfrwt>
<totfact> 0.67864827E-02</totfact>
</mgrwt>
</event>
<event>
 4    1  0.8963905E-004  0.9177186E+02  0.7546771E-02  0.1178865E+00
         22   -1    0    0    0    0  0.00000000000E+00  0.00000000000E+00  0.18372907799E+02  0.18372907799E+02  0.00000000000E+00 0. -1.
         22   -1    0    0    0    0 -0.00000000000E+00 -0.00000000000E+00 -0.45844042715E+03  0.45844042715E+03  0.00000000000E+00 0. -1.
         24    1    1    2    0    0  0.41609219390E+02 -0.14950967261E+02 -0.21769701194E+03  0.23625000216E+03  0.80419002446E+02 0. -1.
        -24    1    1    2    0    0 -0.41609219390E+02  0.14950967261E+02 -0.22237050741E+03  0.24056333279E+03  0.80419002446E+02 0. -1.
<mgrwt>
<rscale>  0 0.91771861E+02</rscale>
<asrwt>0</asrwt>
<pdfrwt beam="1">  1       22 0.36746054E+00 0.91771861E+02</pdfrwt>
<pdfrwt beam="2">0</pdfrwt>
<totfact> 0.10585345E-01</totfact>
</mgrwt>
</event>
<event>
 4    1  0.8963905E-004  0.9596912E+02  0.7546771E-02  0.1170978E+00
         22   -1    0    0    0    0  0.00000000000E+00  0.00000000000E+00  0.37400100854E+02  0.37400100854E+02  0.00000000000E+00 0. -1.
         22   -1    0    0    0    0 -0.00000000000E+00 -0.00000000000E+00 -0.30069601303E+03  0.30069601303E+03  0.00000000000E+00 0.  1.
         24    1    1    2    0    0 -0.23215388558E+01  0.52320797623E+02 -0.20357591992E+03  0.22506271689E+03  0.80419002446E+02 0.  0.
        -24    1    1    2    0    0  0.23215388558E+01 -0.52320797623E+02 -0.59719992248E+02  0.11303339699E+03  0.80419002446E+02 0. -1.
<mgrwt>
<rscale>  0 0.95969117E+02</rscale>
<asrwt>0</asrwt>
<pdfrwt beam="1">  1       22 0.74800468E+00 0.95969117E+02</pdfrwt>
<pdfrwt beam="2">0</pdfrwt>
<totfact> 0.72819378E-02</totfact>
</mgrwt>
</event>
<event>
 4    1  0.8963905E-004  0.8752279E+02  0.7546771E-02  0.1187347E+00
         22   -1    0    0    0    0  0.00000000000E+00  0.00000000000E+00  0.42457638798E+02  0.42457638798E+02  0.00000000000E+00 0.  1.
         22   -1    0    0    0    0 -0.00000000000E+00 -0.00000000000E+00 -0.18046676415E+03  0.18046676415E+03  0.00000000000E+00 0. -1.
         24    1    1    2    0    0 -0.25127154400E+02 -0.23699128685E+02 -0.70784601254E+02  0.11256419643E+03  0.80419002446E+02 0.  0.
        -24    1    1    2    0    0  0.25127154400E+02  0.23699128685E+02 -0.67224524100E+02  0.11036020652E+03  0.80419002446E+02 0.  1.
<mgrwt>
<rscale>  0 0.87522789E+02</rscale>
<asrwt>0</asrwt>
<pdfrwt beam="1">  1       22 0.84915220E+00 0.87522789E+02</pdfrwt>
<pdfrwt beam="2">0</pdfrwt>
<totfact> 0.12837801E-01</totfact>
</mgrwt>
</event>
<event>
 4    1  0.8963905E-004  0.9810596E+02  0.7546771E-02  0.1167133E+00
         22   -1    0    0    0    0  0.00000000000E+00  0.00000000000E+00  0.48893954633E+02  0.48893954633E+02  0.00000000000E+00 0.  1.
         22   -1    0    0    0    0 -0.00000000000E+00 -0.00000000000E+00 -0.62885677746E+03  0.62885677746E+03  0.00000000000E+00 0. -1.
         24    1    1    2    0    0  0.55113227190E+02 -0.10958772800E+02 -0.57085400911E+03  0.57922282257E+03  0.80419002446E+02 0. -1.
        -24    1    1    2    0    0 -0.55113227190E+02  0.10958772800E+02 -0.91088137109E+01  0.98527909519E+02  0.80419002446E+02 0.  1.
<mgrwt>
<rscale>  0 0.98105955E+02</rscale>
<asrwt>0</asrwt>
<pdfrwt beam="1">  1       22 0.97787777E+00 0.98105955E+02</pdfrwt>
<pdfrwt beam="2">0</pdfrwt>
<totfact> 0.13419339E-02</totfact>
</mgrwt>
</event>
<event>
 4    1  0.8963905E-004  0.9317680E+02  0.7546771E-02  0.1176174E+00
         22   -1    0    0    0    0  0.00000000000E+00  0.00000000000E+00  0.26290365426E+02  0.26290365426E+02  0.00000000000E+00 0. -1.
         22   -1    0    0    0    0 -0.00000000000E+00 -0.00000000000E+00 -0.12837079696E+04  0.12837079696E+04  0.00000000000E+00 0.  1.
         24    1    1    2    0    0  0.46913391380E+02  0.37193632307E+01 -0.64210629470E+02  0.11315883017E+03  0.80419002446E+02 0. -1.
        -24    1    1    2    0    0 -0.46913391380E+02 -0.37193632307E+01 -0.11932069747E+04  0.11968395049E+04  0.80419002446E+02 0.  1.
<mgrwt>
<rscale>  0 0.93176799E+02</rscale>
<asrwt>0</asrwt>
<pdfrwt beam="1">  1       22 0.52579769E+00 0.93176799E+02</pdfrwt>
<pdfrwt beam="2">0</pdfrwt>
<totfact> 0.82711902E-03</totfact>
</mgrwt>
</event>
<event>
 4    1  0.8963905E-004  0.8790581E+02  0.7546771E-02  0.1186560E+00
         22   -1    0    0    0    0  0.00000000000E+00  0.00000000000E+00  0.99609578579E+01  0.99609578579E+01  0.00000000000E+00 0. -1.
         22   -1    0    0    0    0 -0.00000000000E+00 -0.00000000000E+00 -0.10375329739E+04  0.10375329739E+04  0.00000000000E+00 0.  1.
         24    1    1    2    0    0 -0.26504582972E+02 -0.23616140012E+02 -0.25071492076E+03  0.26567913436E+03  0.80419002446E+02 0. -1.
        -24    1    1    2    0    0  0.26504582972E+02  0.23616140012E+02 -0.77685709529E+03  0.78181479741E+03  0.80419002446E+02 0.  1.
<mgrwt>
<rscale>  0 0.87905807E+02</rscale>
<asrwt>0</asrwt>
<pdfrwt beam="1">  1       22 0.19921487E+00 0.87905807E+02</pdfrwt>
<pdfrwt beam="2">0</pdfrwt>
<totfact> 0.51085156E-02</totfact>
</mgrwt>
</event>
<event>
 4    1  0.8963905E-004  0.8706521E+02  0.7546771E-02  0.1188292E+00
         22   -1    0    0    0    0  0.00000000000E+00  0.00000000000E+00  0.19982043098E+02  0.19982043098E+02  0.00000000000E+00 0.  1.
         22   -1    0    0    0    0 -0.00000000000E+00 -0.00000000000E+00 -0.46329893793E+03  0.46329893793E+03  0.00000000000E+00 0. -1.
         24    1    1    2    0    0  0.26032476446E+02 -0.20867312893E+02 -0.11880339612E+03  0.14729086007E+03  0.80419002446E+02 0.  1.
        -24    1    1    2    0    0 -0.26032476446E+02  0.20867312893E+02 -0.32451349872E+03  0.33599012096E+03  0.80419002446E+02 0. -1.
<mgrwt>
<rscale>  0 0.87065209E+02</rscale>
<asrwt>0</asrwt>
<pdfrwt beam="1">  1       22 0.39965024E+00 0.87065209E+02</pdfrwt>
<pdfrwt beam="2">0</pdfrwt>
<totfact> 0.91746645E-02</totfact>
</mgrwt>
</event>
<event>
 4    1  0.8963905E-004  0.8206237E+02  0.7546771E-02  0.1199073E+00
         22   -1    0    0    0    0  0.00000000000E+00  0.00000000000E+00  0.18347858333E+02  0.18347858333E+02  0.00000000000E+00 0.  1.
         22   -1    0    0    0    0 -0.00000000000E+00 -0.00000000000E+00 -0.49671955178E+03  0.49671955178E+03  0.00000000000E+00 0. -1.
         24    1    1    2    0    0 -0.16322635845E+02  0.76648063491E+00 -0.37077780541E+03  0.37975046132E+03  0.80419002446E+02 0. -1.
        -24    1    1    2    0    0  0.16322635845E+02 -0.76648063491E+00 -0.10759388803E+03  0.13531694879E+03  0.80419002446E+02 0.  1.
<mgrwt>
<rscale>  0 0.82062366E+02</rscale>
<asrwt>0</asrwt>
<pdfrwt beam="1">  1       22 0.36695395E+00 0.82062366E+02</pdfrwt>
<pdfrwt beam="2">0</pdfrwt>
<totfact> 0.91561102E-02</totfact>
</mgrwt>
</event>
<event>
 4    1  0.8963905E-004  0.8805749E+02  0.7546771E-02  0.1186250E+00
         22   -1    0    0    0    0  0.00000000000E+00  0.00000000000E+00  0.47474232176E+02  0.47474232176E+02  0.00000000000E+00 0.  1.
         22   -1    0    0    0    0 -0.00000000000E+00 -0.00000000000E+00 -0.35355689596E+04  0.35355689596E+04  0.00000000000E+00 0. -1.
         24    1    1    2    0    0  0.22612134128E+02  0.27849544071E+02  0.56033232477E+01  0.88235587495E+02  0.80419002446E+02 0.  1.
        -24    1    1    2    0    0 -0.22612134128E+02 -0.27849544071E+02 -0.34936980507E+04  0.34948076043E+04  0.80419002446E+02 0. -1.
<mgrwt>
<rscale>  0 0.88057491E+02</rscale>
<asrwt>0</asrwt>
<pdfrwt beam="1">  1       22 0.94940245E+00 0.88057491E+02</pdfrwt>
<pdfrwt beam="2">0</pdfrwt>
<totfact> 0.11505556E-04</totfact>
</mgrwt>
</event>
<event>
 4    1  0.8963905E-004  0.1071767E+03  0.7546771E-02  0.1151951E+00
         22   -1    0    0    0    0  0.00000000000E+00  0.00000000000E+00  0.19873134972E+02  0.19873134972E+02  0.00000000000E+00 0. -1.
         22   -1    0    0    0    0 -0.00000000000E+00 -0.00000000000E+00 -0.10429905827E+04  0.10429905827E+04  0.00000000000E+00 0. -1.
         24    1    1    2    0    0 -0.59261747100E+02 -0.38828825116E+02 -0.86639280745E+03  0.87299676121E+03  0.80419002446E+02 0. -1.
        -24    1    1    2    0    0  0.59261747100E+02  0.38828825116E+02 -0.15672464025E+03  0.18986695643E+03  0.80419002446E+02 0. -1.
<mgrwt>
<rscale>  0 0.10717672E+03</rscale>
<asrwt>0</asrwt>
<pdfrwt beam="1">  1       22 0.39745204E+00 0.10717672E+03</pdfrwt>
<pdfrwt beam="2">0</pdfrwt>
<totfact> 0.20080522E-02</totfact>
</mgrwt>
</event>
<event>
 4    1  0.8963905E-004  0.1187913E+03  0.7546771E-02  0.1134786E+00
         22   -1    0    0    0    0  0.00000000000E+00  0.00000000000E+00  0.30030768234E+02  0.30030768234E+02  0.00000000000E+00 0.  1.
         22   -1    0    0    0    0 -0.00000000000E+00 -0.00000000000E+00 -0.60630605803E+03  0.60630605803E+03  0.00000000000E+00 0.  1.
         24    1    1    2    0    0  0.80500070373E+02 -0.34115942614E+02 -0.13722266644E+03  0.18149775484E+03  0.80419002446E+02 0.  1.
        -24    1    1    2    0    0 -0.80500070373E+02  0.34115942614E+02 -0.43905262335E+03  0.45483907143E+03  0.80419002446E+02 0.  1.
<mgrwt>
<rscale>  0 0.11879131E+03</rscale>
<asrwt>0</asrwt>
<pdfrwt beam="1">  1       22 0.60062352E+00 0.11879131E+03</pdfrwt>
<pdfrwt beam="2">0</pdfrwt>
<totfact> 0.31831916E-02</totfact>
</mgrwt>
</event>
<event>
 4    1  0.8963905E-004  0.8092862E+02  0.7546771E-02  0.1201637E+00
         22   -1    0    0    0    0  0.00000000000E+00  0.00000000000E+00  0.70178924510E+01  0.70178924510E+01  0.00000000000E+00 0. -1.
         22   -1    0    0    0    0 -0.00000000000E+00 -0.00000000000E+00 -0.15009024168E+04  0.15009024168E+04  0.00000000000E+00 0.  1.
         24    1    1    2    0    0 -0.90584273491E+01  0.41316721319E+00 -0.12106173456E+04  0.12133193311E+04  0.80419002446E+02 0.  1.
        -24    1    1    2    0    0  0.90584273491E+01 -0.41316721319E+00 -0.28326717875E+03  0.29460097814E+03  0.80419002446E+02 0. -1.
<mgrwt>
<rscale>  0 0.80928621E+02</rscale>
<asrwt>0</asrwt>
<pdfrwt beam="1">  1       22 0.14035910E+00 0.80928621E+02</pdfrwt>
<pdfrwt beam="2">0</pdfrwt>
<totfact> 0.33813854E-02</totfact>
</mgrwt>
</event>
