<event>
 4    1  0.8237115E+000  0.2052315E+03  0.7818608E-02  0.1054836E+00
         22   -1    0    0    0    0  0.00000000000E+00  0.00000000000E+00  0.38792782114E+02  0.38792782114E+02  0.00000000000E+00 0.  1.
         22   -1    0    0    0    0 -0.00000000000E+00 -0.00000000000E+00 -0.11062739793E+04  0.11062739793E+04  0.00000000000E+00 0.  1.
         24    1    1    2    0    0 -0.18715223969E+03  0.26871770078E+02 -0.45579271741E+03  0.49986696480E+03  0.79824359746E+02 0.  0.
        -24    1    1    2    0    0  0.18715223969E+03 -0.26871770078E+02 -0.61168847975E+03  0.64519979659E+03  0.79824359746E+02 0.  0.
<mgrwt>
<rscale>  0 0.20523153E+03</rscale>
<asrwt>0</asrwt>
<pdfrwt beam="1">  1       22 0.77584408E+00 0.20523153E+03</pdfrwt>
<pdfrwt beam="2">0</pdfrwt>
<totfact> 0.68195994E-03</totfact>
</mgrwt>
</event>
<event>
 4    1  0.8237115E+000  0.1963320E+03  0.7818608E-02  0.1061147E+00
         22   -1    0    0    0    0  0.00000000000E+00  0.00000000000E+00  0.33728986664E+02  0.33728986664E+02  0.00000000000E+00 0.  1.
         22   -1    0    0    0    0 -0.00000000000E+00 -0.00000000000E+00 -0.14760301950E+04  0.14760301950E+04  0.00000000000E+00 0.  1.
         24    1    1    2    0    0  0.54267202686E+02 -0.17096608738E+03 -0.36248703380E+03  0.41224156803E+03  0.79824359746E+02 0.  0.
        -24    1    1    2    0    0 -0.54267202686E+02  0.17096608738E+03 -0.10798141746E+04  0.10975176137E+04  0.79824359746E+02 0.  0.
<mgrwt>
<rscale>  0 0.19633202E+03</rscale>
<asrwt>0</asrwt>
<pdfrwt beam="1">  1       22 0.67459051E+00 0.19633202E+03</pdfrwt>
<pdfrwt beam="2">0</pdfrwt>
<totfact> 0.43228180E-03</totfact>
</mgrwt>
</event>
<event>
 4    1  0.8237115E+000  0.2783257E+03  0.7818608E-02  0.1013447E+00
         22   -1    0    0    0    0  0.00000000000E+00  0.00000000000E+00  0.26996104033E+02  0.26996104033E+02  0.00000000000E+00 0.  1.
         22   -1    0    0    0    0 -0.00000000000E+00 -0.00000000000E+00 -0.29052903605E+04  0.29052903605E+04  0.00000000000E+00 0.  1.
         24    1    1    2    0    0 -0.26005127820E+03  0.58877708592E+02 -0.12764064270E+04  0.13063990765E+04  0.79824359746E+02 0.  0.
        -24    1    1    2    0    0  0.26005127820E+03 -0.58877708592E+02 -0.16018878295E+04  0.16258873881E+04  0.79824359746E+02 0.  0.
<mgrwt>
<rscale>  0 0.27832567E+03</rscale>
<asrwt>0</asrwt>
<pdfrwt beam="1">  1       22 0.53991499E+00 0.27832567E+03</pdfrwt>
<pdfrwt beam="2">0</pdfrwt>
<totfact> 0.78566412E-04</totfact>
</mgrwt>
</event>
<event>
 4    1  0.8237115E+000  0.2379974E+03  0.7818608E-02  0.1034291E+00
         22   -1    0    0    0    0  0.00000000000E+00  0.00000000000E+00  0.43697674262E+02  0.43697674262E+02  0.00000000000E+00 0.  1.
         22   -1    0    0    0    0 -0.00000000000E+00 -0.00000000000E+00 -0.13103484812E+04  0.13103484812E+04  0.00000000000E+00 0.  1.
         24    1    1    2    0    0  0.59466123079E+02 -0.21618193729E+03 -0.56308075569E+03  0.61131228979E+03  0.79824359746E+02 0.  0.
        -24    1    1    2    0    0 -0.59466123079E+02  0.21618193729E+03 -0.70357005126E+03  0.74273386569E+03  0.79824359746E+02 0.  0.
<mgrwt>
<rscale>  0 0.23799743E+03</rscale>
<asrwt>0</asrwt>
<pdfrwt beam="1">  1       22 0.87394787E+00 0.23799743E+03</pdfrwt>
<pdfrwt beam="2">0</pdfrwt>
<totfact> 0.39458876E-03</totfact>
</mgrwt>
</event>
<event>
 4    1  0.8237115E+000  0.2378447E+03  0.7818608E-02  0.1034378E+00
         22   -1    0    0    0    0  0.00000000000E+00  0.00000000000E+00  0.44699435762E+02  0.44699435762E+02  0.00000000000E+00 0. -1.
         22   -1    0    0    0    0 -0.00000000000E+00 -0.00000000000E+00 -0.14388137670E+04  0.14388137670E+04  0.00000000000E+00 0. -1.
         24    1    1    2    0    0 -0.10011661417E+03 -0.20043658562E+03 -0.43966646603E+03  0.49987667584E+03  0.79824359746E+02 0.  0.
        -24    1    1    2    0    0  0.10011661417E+03  0.20043658562E+03 -0.95444786519E+03  0.98363652691E+03  0.79824359746E+02 0.  0.
<mgrwt>
<rscale>  0 0.23784468E+03</rscale>
<asrwt>0</asrwt>
<pdfrwt beam="1">  1       22 0.89396384E+00 0.23784468E+03</pdfrwt>
<pdfrwt beam="2">0</pdfrwt>
<totfact> 0.30548785E-03</totfact>
</mgrwt>
</event>
<event>
 4    1  0.8237115E+000  0.2444477E+03  0.7818608E-02  0.1030668E+00
         22   -1    0    0    0    0  0.00000000000E+00  0.00000000000E+00  0.38978652175E+02  0.38978652175E+02  0.00000000000E+00 0.  1.
         22   -1    0    0    0    0 -0.00000000000E+00 -0.00000000000E+00 -0.22900332788E+04  0.22900332788E+04  0.00000000000E+00 0.  1.
         24    1    1    2    0    0 -0.72290420811E+02 -0.21944668128E+03 -0.45598917169E+03  0.51737878191E+03  0.79824359746E+02 0.  0.
        -24    1    1    2    0    0  0.72290420811E+02  0.21944668128E+03 -0.17950654549E+04  0.18116331490E+04  0.79824359746E+02 0.  0.
<mgrwt>
<rscale>  0 0.24444770E+03</rscale>
<asrwt>0</asrwt>
<pdfrwt beam="1">  1       22 0.77959341E+00 0.24444770E+03</pdfrwt>
<pdfrwt beam="2">0</pdfrwt>
<totfact> 0.10564809E-03</totfact>
</mgrwt>
</event>
<event>
 4    1  0.8237115E+000  0.1547171E+03  0.7818608E-02  0.1096429E+00
         22   -1    0    0    0    0  0.00000000000E+00  0.00000000000E+00  0.27201551437E+02  0.27201551437E+02  0.00000000000E+00 0. -1.
         22   -1    0    0    0    0 -0.00000000000E+00 -0.00000000000E+00 -0.88003345592E+03  0.88003345592E+03  0.00000000000E+00 0. -1.
         24    1    1    2    0    0  0.12810725163E+03 -0.33970403494E+02 -0.42918291042E+03  0.45621853890E+03  0.79824359746E+02 0.  0.
        -24    1    1    2    0    0 -0.12810725163E+03  0.33970403494E+02 -0.42364899406E+03  0.45101646845E+03  0.79824359746E+02 0.  0.
<mgrwt>
<rscale>  0 0.15471711E+03</rscale>
<asrwt>0</asrwt>
<pdfrwt beam="1">  1       22 0.54403548E+00 0.15471711E+03</pdfrwt>
<pdfrwt beam="2">0</pdfrwt>
<totfact> 0.18485573E-02</totfact>
</mgrwt>
</event>
<event>
 4    1  0.8237115E+000  0.1783506E+03  0.7818608E-02  0.1075092E+00
         22   -1    0    0    0    0  0.00000000000E+00  0.00000000000E+00  0.44164671738E+02  0.44164671738E+02  0.00000000000E+00 0. -1.
         22   -1    0    0    0    0 -0.00000000000E+00 -0.00000000000E+00 -0.18069693152E+04  0.18069693152E+04  0.00000000000E+00 0. -1.
         24    1    1    2    0    0 -0.94324271050E+02  0.12860767117E+03 -0.16361758664E+03  0.24203232069E+03  0.79824359746E+02 0.  0.
        -24    1    1    2    0    0  0.94324271050E+02 -0.12860767117E+03 -0.15991870569E+04  0.16091016663E+04  0.79824359746E+02 0.  0.
<mgrwt>
<rscale>  0 0.17835058E+03</rscale>
<asrwt>0</asrwt>
<pdfrwt beam="1">  1       22 0.88327811E+00 0.17835058E+03</pdfrwt>
<pdfrwt beam="2">0</pdfrwt>
<totfact> 0.17024167E-03</totfact>
</mgrwt>
</event>
<event>
 4    1  0.8237115E+000  0.2425195E+03  0.7818608E-02  0.1031738E+00
         22   -1    0    0    0    0  0.00000000000E+00  0.00000000000E+00  0.43990892522E+02  0.43990892522E+02  0.00000000000E+00 0.  1.
         22   -1    0    0    0    0 -0.00000000000E+00 -0.00000000000E+00 -0.13958114790E+04  0.13958114790E+04  0.00000000000E+00 0.  1.
         24    1    1    2    0    0 -0.21183572536E+03 -0.87002386195E+02 -0.82368475357E+03  0.85864561457E+03  0.79824359746E+02 0.  0.
        -24    1    1    2    0    0  0.21183572536E+03  0.87002386195E+02 -0.52813583288E+03  0.58115675693E+03  0.79824359746E+02 0.  0.
<mgrwt>
<rscale>  0 0.24251952E+03</rscale>
<asrwt>0</asrwt>
<pdfrwt beam="1">  1       22 0.87984252E+00 0.24251952E+03</pdfrwt>
<pdfrwt beam="2">0</pdfrwt>
<totfact> 0.33724431E-03</totfact>
</mgrwt>
</event>
<event>
 4    1  0.8237115E+000  0.3375962E+03  0.7818608E-02  0.9888906E-01
         22   -1    0    0    0    0  0.00000000000E+00  0.00000000000E+00  0.30879746657E+02  0.30879746657E+02  0.00000000000E+00 0. -1.
         22   -1    0    0    0    0 -0.00000000000E+00 -0.00000000000E+00 -0.36913101728E+04  0.36913101728E+04  0.00000000000E+00 0. -1.
         24    1    1    2    0    0 -0.32675515651E+03 -0.28815364989E+02 -0.18084869545E+04  0.18397272217E+04  0.79824359746E+02 0.  0.
        -24    1    1    2    0    0  0.32675515651E+03  0.28815364989E+02 -0.18519434717E+04  0.18824626977E+04  0.79824359746E+02 0.  0.
<mgrwt>
<rscale>  0 0.33759619E+03</rscale>
<asrwt>0</asrwt>
<pdfrwt beam="1">  1       22 0.61749147E+00 0.33759619E+03</pdfrwt>
<pdfrwt beam="2">0</pdfrwt>
<totfact> 0.19348311E-04</totfact>
</mgrwt>
</event>
<event>
 4    1  0.8237115E+000  0.2042533E+03  0.7818608E-02  0.1055512E+00
         22   -1    0    0    0    0  0.00000000000E+00  0.00000000000E+00  0.91167584931E+01  0.91167584931E+01  0.00000000000E+00 0.  1.
         22   -1    0    0    0    0 -0.00000000000E+00 -0.00000000000E+00 -0.46432704701E+04  0.46432704701E+04  0.00000000000E+00 0.  1.
         24    1    1    2    0    0  0.56920399484E+02 -0.17918585472E+03 -0.20373458020E+04  0.20475588753E+04  0.79824359746E+02 0.  0.
        -24    1    1    2    0    0 -0.56920399484E+02  0.17918585472E+03 -0.25968079097E+04  0.26048283534E+04  0.79824359746E+02 0.  0.
<mgrwt>
<rscale>  0 0.20425335E+03</rscale>
<asrwt>0</asrwt>
<pdfrwt beam="1">  1       22 0.18213234E+00 0.20425335E+03</pdfrwt>
<pdfrwt beam="2">0</pdfrwt>
<totfact> 0.16124480E-04</totfact>
</mgrwt>
</event>
<event>
 4    1  0.8237115E+000  0.3393194E+03  0.7818608E-02  0.9882594E-01
         22   -1    0    0    0    0  0.00000000000E+00  0.00000000000E+00  0.33301083150E+02  0.33301083150E+02  0.00000000000E+00 0.  1.
         22   -1    0    0    0    0 -0.00000000000E+00 -0.00000000000E+00 -0.34583810801E+04  0.34583810801E+04  0.00000000000E+00 0.  1.
         24    1    1    2    0    0 -0.32902604003E+03 -0.22529172227E+02 -0.16842647498E+04  0.17181051698E+04  0.79824359746E+02 0.  0.
        -24    1    1    2    0    0  0.32902604003E+03  0.22529172227E+02 -0.17408152471E+04  0.17735769934E+04  0.79824359746E+02 0.  0.
<mgrwt>
<rscale>  0 0.33931936E+03</rscale>
<asrwt>0</asrwt>
<pdfrwt beam="1">  1       22 0.66604729E+00 0.33931936E+03</pdfrwt>
<pdfrwt beam="2">0</pdfrwt>
<totfact> 0.25259844E-04</totfact>
</mgrwt>
</event>
<event>
 4    1  0.8237115E+000  0.4104534E+03  0.7818608E-02  0.9652388E-01
         22   -1    0    0    0    0  0.00000000000E+00  0.00000000000E+00  0.39943514532E+02  0.39943514532E+02  0.00000000000E+00 0.  1.
         22   -1    0    0    0    0 -0.00000000000E+00 -0.00000000000E+00 -0.45335592589E+04  0.45335592589E+04  0.00000000000E+00 0.  1.
         24    1    1    2    0    0  0.36340833566E+03 -0.17330447547E+03 -0.28503502630E+04  0.28797514840E+04  0.79824359746E+02 0.  0.
        -24    1    1    2    0    0 -0.36340833566E+03  0.17330447547E+03 -0.16432654813E+04  0.16937512893E+04  0.79824359746E+02 0.  0.
<mgrwt>
<rscale>  0 0.41045339E+03</rscale>
<asrwt>0</asrwt>
<pdfrwt beam="1">  1       22 0.79878487E+00 0.41045339E+03</pdfrwt>
<pdfrwt beam="2">0</pdfrwt>
<totfact> 0.26992737E-05</totfact>
</mgrwt>
</event>
<event>
 4    1  0.8237115E+000  0.2869982E+03  0.7818608E-02  0.1009462E+00
         22   -1    0    0    0    0  0.00000000000E+00  0.00000000000E+00  0.45227415270E+02  0.45227415270E+02  0.00000000000E+00 0. -1.
         22   -1    0    0    0    0 -0.00000000000E+00 -0.00000000000E+00 -0.21755566590E+04  0.21755566590E+04  0.00000000000E+00 0. -1.
         24    1    1    2    0    0 -0.48670424725E+02  0.27134335447E+03 -0.61702397311E+03  0.68050462016E+03  0.79824359746E+02 0.  0.
        -24    1    1    2    0    0  0.48670424725E+02 -0.27134335447E+03 -0.15133052707E+04  0.15402794541E+04  0.79824359746E+02 0.  0.
<mgrwt>
<rscale>  0 0.28699818E+03</rscale>
<asrwt>0</asrwt>
<pdfrwt beam="1">  1       22 0.90445822E+00 0.28699818E+03</pdfrwt>
<pdfrwt beam="2">0</pdfrwt>
<totfact> 0.10040116E-03</totfact>
</mgrwt>
</event>
<event>
 4    1  0.8237115E+000  0.2694068E+03  0.7818608E-02  0.1017713E+00
         22   -1    0    0    0    0  0.00000000000E+00  0.00000000000E+00  0.46576837477E+02  0.46576837477E+02  0.00000000000E+00 0. -1.
         22   -1    0    0    0    0 -0.00000000000E+00 -0.00000000000E+00 -0.16555688327E+04  0.16555688327E+04  0.00000000000E+00 0. -1.
         24    1    1    2    0    0  0.19856954393E+03  0.16364058269E+03 -0.10108017194E+04  0.10460880213E+04  0.79824359746E+02 0.  0.
        -24    1    1    2    0    0 -0.19856954393E+03 -0.16364058269E+03 -0.59819027588E+03  0.65605764888E+03  0.79824359746E+02 0.  0.
<mgrwt>
<rscale>  0 0.26940682E+03</rscale>
<asrwt>0</asrwt>
<pdfrwt beam="1">  1       22 0.93154178E+00 0.26940682E+03</pdfrwt>
<pdfrwt beam="2">0</pdfrwt>
<totfact> 0.20380057E-03</totfact>
</mgrwt>
</event>
<event>
 4    1  0.8237115E+000  0.3257511E+03  0.7818608E-02  0.9933419E-01
         22   -1    0    0    0    0  0.00000000000E+00  0.00000000000E+00  0.43114269804E+02  0.43114269804E+02  0.00000000000E+00 0. -1.
         22   -1    0    0    0    0 -0.00000000000E+00 -0.00000000000E+00 -0.25161095075E+04  0.25161095075E+04  0.00000000000E+00 0. -1.
         24    1    1    2    0    0  0.23452383360E+03  0.21151925158E+03 -0.14254941339E+04  0.14622404989E+04  0.79824359746E+02 0.  0.
        -24    1    1    2    0    0 -0.23452383360E+03 -0.21151925158E+03 -0.10475011038E+04  0.10969832785E+04  0.79824359746E+02 0.  0.
<mgrwt>
<rscale>  0 0.32575106E+03</rscale>
<asrwt>0</asrwt>
<pdfrwt beam="1">  1       22 0.86225452E+00 0.32575106E+03</pdfrwt>
<pdfrwt beam="2">0</pdfrwt>
<totfact> 0.67910701E-04</totfact>
</mgrwt>
</event>
<event>
 4    1  0.8237115E+000  0.2391216E+03  0.7818608E-02  0.1033650E+00
         22   -1    0    0    0    0  0.00000000000E+00  0.00000000000E+00  0.29083859624E+02  0.29083859624E+02  0.00000000000E+00 0. -1.
         22   -1    0    0    0    0 -0.00000000000E+00 -0.00000000000E+00 -0.30221314875E+04  0.30221314875E+04  0.00000000000E+00 0. -1.
         24    1    1    2    0    0  0.14360112557E+03 -0.17374092139E+03 -0.59465492718E+03  0.64093182310E+03  0.79824359746E+02 0.  0.
        -24    1    1    2    0    0 -0.14360112557E+03  0.17374092139E+03 -0.23983927007E+04  0.24102835240E+04  0.79824359746E+02 0.  0.
<mgrwt>
<rscale>  0 0.23912156E+03</rscale>
<asrwt>0</asrwt>
<pdfrwt beam="1">  1       22 0.58169927E+00 0.23912156E+03</pdfrwt>
<pdfrwt beam="2">0</pdfrwt>
<totfact> 0.58579526E-04</totfact>
</mgrwt>
</event>
<event>
 4    1  0.8237115E+000  0.2412844E+03  0.7818608E-02  0.1032429E+00
         22   -1    0    0    0    0  0.00000000000E+00  0.00000000000E+00  0.45495507587E+02  0.45495507587E+02  0.00000000000E+00 0.  1.
         22   -1    0    0    0    0 -0.00000000000E+00 -0.00000000000E+00 -0.15846030677E+04  0.15846030677E+04  0.00000000000E+00 0.  1.
         24    1    1    2    0    0  0.13994462667E+03 -0.17961554415E+03 -0.11271085410E+04  0.11526455804E+04  0.79824359746E+02 0.  0.
        -24    1    1    2    0    0 -0.13994462667E+03  0.17961554415E+03 -0.41199901906E+03  0.47745299491E+03  0.79824359746E+02 0.  0.
<mgrwt>
<rscale>  0 0.24128442E+03</rscale>
<asrwt>0</asrwt>
<pdfrwt beam="1">  1       22 0.90991033E+00 0.24128442E+03</pdfrwt>
<pdfrwt beam="2">0</pdfrwt>
<totfact> 0.23459573E-03</totfact>
</mgrwt>
</event>
<event>
 4    1  0.8237115E+000  0.2255785E+03  0.7818608E-02  0.1041629E+00
         22   -1    0    0    0    0  0.00000000000E+00  0.00000000000E+00  0.19385710347E+02  0.19385710347E+02  0.00000000000E+00 0.  1.
         22   -1    0    0    0    0 -0.00000000000E+00 -0.00000000000E+00 -0.26787584749E+04  0.26787584749E+04  0.00000000000E+00 0.  1.
         24    1    1    2    0    0  0.53329824944E+02  0.20413149863E+03 -0.15209671122E+04  0.15376041830E+04  0.79824359746E+02 0.  0.
        -24    1    1    2    0    0 -0.53329824944E+02 -0.20413149863E+03 -0.11384056524E+04  0.11605400023E+04  0.79824359746E+02 0.  0.
<mgrwt>
<rscale>  0 0.22557852E+03</rscale>
<asrwt>0</asrwt>
<pdfrwt beam="1">  1       22 0.38771370E+00 0.22557852E+03</pdfrwt>
<pdfrwt beam="2">0</pdfrwt>
<totfact> 0.17377722E-03</totfact>
</mgrwt>
</event>
<event>
 4    1  0.8237115E+000  0.3567844E+03  0.7818608E-02  0.9820806E-01
         22   -1    0    0    0    0  0.00000000000E+00  0.00000000000E+00  0.49118857117E+02  0.49118857117E+02  0.00000000000E+00 0. -1.
         22   -1    0    0    0    0 -0.00000000000E+00 -0.00000000000E+00 -0.27242873571E+04  0.27242873571E+04  0.00000000000E+00 0. -1.
         24    1    1    2    0    0 -0.17211333737E+03 -0.30215914828E+03 -0.16436514385E+04  0.16819289912E+04  0.79824359746E+02 0.  0.
        -24    1    1    2    0    0  0.17211333737E+03  0.30215914828E+03 -0.10315170614E+04  0.10914772229E+04  0.79824359746E+02 0.  0.
<mgrwt>
<rscale>  0 0.35678436E+03</rscale>
<asrwt>0</asrwt>
<pdfrwt beam="1">  1       22 0.98235888E+00 0.35678436E+03</pdfrwt>
<pdfrwt beam="2">0</pdfrwt>
<totfact> 0.40387737E-04</totfact>
</mgrwt>
</event>
<event>
 4    1  0.8237115E+000  0.2804929E+03  0.7818608E-02  0.1012437E+00
         22   -1    0    0    0    0  0.00000000000E+00  0.00000000000E+00  0.43297263884E+02  0.43297263884E+02  0.00000000000E+00 0. -1.
         22   -1    0    0    0    0 -0.00000000000E+00 -0.00000000000E+00 -0.21250226121E+04  0.21250226121E+04  0.00000000000E+00 0. -1.
         24    1    1    2    0    0  0.26715591682E+03  0.30529260307E+02 -0.14535484533E+04  0.14803646018E+04  0.79824359746E+02 0.  0.
        -24    1    1    2    0    0 -0.26715591682E+03 -0.30529260307E+02 -0.62817689493E+03  0.68795527425E+03  0.79824359746E+02 0.  0.
<mgrwt>
<rscale>  0 0.28049287E+03</rscale>
<asrwt>0</asrwt>
<pdfrwt beam="1">  1       22 0.86589533E+00 0.28049287E+03</pdfrwt>
<pdfrwt beam="2">0</pdfrwt>
<totfact> 0.11505192E-03</totfact>
</mgrwt>
</event>
<event>
 4    1  0.8237115E+000  0.3482308E+03  0.7818608E-02  0.9850581E-01
         22   -1    0    0    0    0  0.00000000000E+00  0.00000000000E+00  0.38685852875E+02  0.38685852875E+02  0.00000000000E+00 0. -1.
         22   -1    0    0    0    0 -0.00000000000E+00 -0.00000000000E+00 -0.34558275125E+04  0.34558275125E+04  0.00000000000E+00 0. -1.
         24    1    1    2    0    0 -0.30878923134E+03 -0.13979256044E+03 -0.11758655634E+04  0.12263459956E+04  0.79824359746E+02 0.  0.
        -24    1    1    2    0    0  0.30878923134E+03  0.13979256044E+03 -0.22412760962E+04  0.22681673698E+04  0.79824359746E+02 0.  0.
<mgrwt>
<rscale>  0 0.34823078E+03</rscale>
<asrwt>0</asrwt>
<pdfrwt beam="1">  1       22 0.77373711E+00 0.34823078E+03</pdfrwt>
<pdfrwt beam="2">0</pdfrwt>
<totfact> 0.20274299E-04</totfact>
</mgrwt>
</event>
<event>
 4    1  0.8237115E+000  0.2778262E+03  0.7818608E-02  0.1013682E+00
         22   -1    0    0    0    0  0.00000000000E+00  0.00000000000E+00  0.48818150782E+02  0.48818150782E+02  0.00000000000E+00 0. -1.
         22   -1    0    0    0    0 -0.00000000000E+00 -0.00000000000E+00 -0.15920178076E+04  0.15920178076E+04  0.00000000000E+00 0. -1.
         24    1    1    2    0    0  0.41295142732E+01  0.26607971538E+03 -0.70372421477E+03  0.75658123601E+03  0.79824359746E+02 0.  0.
        -24    1    1    2    0    0 -0.41295142732E+01 -0.26607971538E+03 -0.83947544208E+03  0.88425472241E+03  0.79824359746E+02 0.  0.
<mgrwt>
<rscale>  0 0.27782620E+03</rscale>
<asrwt>0</asrwt>
<pdfrwt beam="1">  1       22 0.97635857E+00 0.27782620E+03</pdfrwt>
<pdfrwt beam="2">0</pdfrwt>
<totfact> 0.20482703E-03</totfact>
</mgrwt>
</event>
<event>
 4    1  0.8237115E+000  0.1104684E+03  0.7818608E-02  0.1150622E+00
         22   -1    0    0    0    0  0.00000000000E+00  0.00000000000E+00  0.49614200782E+02  0.49614200782E+02  0.00000000000E+00 0.  1.
         22   -1    0    0    0    0 -0.00000000000E+00 -0.00000000000E+00 -0.19081062636E+04  0.19081062636E+04  0.00000000000E+00 0.  1.
         24    1    1    2    0    0  0.76268434997E+02  0.38023884802E+01 -0.18428408443E+04  0.18461488668E+04  0.79824359746E+02 0.  0.
        -24    1    1    2    0    0 -0.76268434997E+02 -0.38023884802E+01 -0.15651218438E+02  0.11157159756E+03  0.79824359746E+02 0.  0.
<mgrwt>
<rscale>  0 0.11046837E+03</rscale>
<asrwt>0</asrwt>
<pdfrwt beam="1">  1       22 0.99228402E+00 0.11046837E+03</pdfrwt>
<pdfrwt beam="2">0</pdfrwt>
<totfact> 0.10848531E-03</totfact>
</mgrwt>
</event>
<event>
 4    1  0.8237115E+000  0.2603835E+03  0.7818608E-02  0.1022215E+00
         22   -1    0    0    0    0  0.00000000000E+00  0.00000000000E+00  0.41706221036E+02  0.41706221036E+02  0.00000000000E+00 0.  1.
         22   -1    0    0    0    0 -0.00000000000E+00 -0.00000000000E+00 -0.27164283080E+04  0.27164283080E+04  0.00000000000E+00 0.  1.
         24    1    1    2    0    0 -0.23728609390E+03 -0.71574725910E+02 -0.22112481397E+04  0.22265259701E+04  0.79824359746E+02 0.  0.
        -24    1    1    2    0    0  0.23728609390E+03  0.71574725910E+02 -0.46347394731E+03  0.53160855899E+03  0.79824359746E+02 0.  0.
<mgrwt>
<rscale>  0 0.26038349E+03</rscale>
<asrwt>0</asrwt>
<pdfrwt beam="1">  1       22 0.83409669E+00 0.26038349E+03</pdfrwt>
<pdfrwt beam="2">0</pdfrwt>
<totfact> 0.52966536E-04</totfact>
</mgrwt>
</event>
<event>
 4    1  0.8237115E+000  0.2641974E+03  0.7818608E-02  0.1020289E+00
         22   -1    0    0    0    0  0.00000000000E+00  0.00000000000E+00  0.49038072050E+02  0.49038072050E+02  0.00000000000E+00 0. -1.
         22   -1    0    0    0    0 -0.00000000000E+00 -0.00000000000E+00 -0.29900740368E+04  0.29900740368E+04  0.00000000000E+00 0. -1.
         24    1    1    2    0    0 -0.23993828505E+03  0.76537205594E+02 -0.25704519161E+04  0.25839936737E+04  0.79824359746E+02 0.  0.
        -24    1    1    2    0    0  0.23993828505E+03 -0.76537205594E+02 -0.37058404870E+03  0.45511843517E+03  0.79824359746E+02 0.  0.
<mgrwt>
<rscale>  0 0.26419737E+03</rscale>
<asrwt>0</asrwt>
<pdfrwt beam="1">  1       22 0.98075623E+00 0.26419737E+03</pdfrwt>
<pdfrwt beam="2">0</pdfrwt>
<totfact> 0.27055825E-04</totfact>
</mgrwt>
</event>
<event>
 4    1  0.8237115E+000  0.3839917E+03  0.7818608E-02  0.9731742E-01
         22   -1    0    0    0    0  0.00000000000E+00  0.00000000000E+00  0.36301074916E+02  0.36301074916E+02  0.00000000000E+00 0. -1.
         22   -1    0    0    0    0 -0.00000000000E+00 -0.00000000000E+00 -0.49742891730E+04  0.49742891730E+04  0.00000000000E+00 0. -1.
         24    1    1    2    0    0 -0.30303629383E+02  0.37437866489E+03 -0.35419815712E+04  0.35627353359E+04  0.79824359746E+02 0.  0.
        -24    1    1    2    0    0  0.30303629383E+02 -0.37437866489E+03 -0.13960065269E+04  0.14478549120E+04  0.79824359746E+02 0.  0.
<mgrwt>
<rscale>  0 0.38399170E+03</rscale>
<asrwt>0</asrwt>
<pdfrwt beam="1">  1       22 0.72597740E+00 0.38399170E+03</pdfrwt>
<pdfrwt beam="2">0</pdfrwt>
<totfact> 0.11041795E-05</totfact>
</mgrwt>
</event>
<event>
 4    1  0.8237115E+000  0.8131737E+02  0.7818608E-02  0.1204898E+00
         22   -1    0    0    0    0  0.00000000000E+00  0.00000000000E+00  0.22933092025E+02  0.22933092025E+02  0.00000000000E+00 0.  1.
         22   -1    0    0    0    0 -0.00000000000E+00 -0.00000000000E+00 -0.17383751096E+04  0.17383751096E+04  0.00000000000E+00 0.  1.
         24    1    1    2    0    0 -0.13992159537E+02 -0.66937618969E+01 -0.53411961405E+02  0.97290045775E+02  0.79824359746E+02 0.  0.
        -24    1    1    2    0    0  0.13992159537E+02  0.66937618969E+01 -0.16620300562E+04  0.16640181558E+04  0.79824359746E+02 0.  0.
<mgrwt>
<rscale>  0 0.81317374E+02</rscale>
<asrwt>0</asrwt>
<pdfrwt beam="1">  1       22 0.45866563E+00 0.81317374E+02</pdfrwt>
<pdfrwt beam="2">0</pdfrwt>
<totfact> 0.47688273E-03</totfact>
</mgrwt>
</event>
<event>
 4    1  0.8237115E+000  0.1964960E+03  0.7818608E-02  0.1061028E+00
         22   -1    0    0    0    0  0.00000000000E+00  0.00000000000E+00  0.32745144813E+02  0.32745144813E+02  0.00000000000E+00 0. -1.
         22   -1    0    0    0    0 -0.00000000000E+00 -0.00000000000E+00 -0.26418091134E+04  0.26418091134E+04  0.00000000000E+00 0. -1.
         24    1    1    2    0    0  0.41764494700E+02 -0.17462666129E+03 -0.30948009119E+03  0.36659050601E+03  0.79824359746E+02 0.  0.
        -24    1    1    2    0    0 -0.41764494700E+02  0.17462666129E+03 -0.22995838774E+04  0.23079637522E+04  0.79824359746E+02 0.  0.
<mgrwt>
<rscale>  0 0.19649599E+03</rscale>
<asrwt>0</asrwt>
<pdfrwt beam="1">  1       22 0.65490716E+00 0.19649599E+03</pdfrwt>
<pdfrwt beam="2">0</pdfrwt>
<totfact> 0.82786771E-04</totfact>
</mgrwt>
</event>
<event>
 4    1  0.8237115E+000  0.2758763E+03  0.7818608E-02  0.1014602E+00
         22   -1    0    0    0    0  0.00000000000E+00  0.00000000000E+00  0.49735205736E+02  0.49735205736E+02  0.00000000000E+00 0. -1.
         22   -1    0    0    0    0 -0.00000000000E+00 -0.00000000000E+00 -0.16455545298E+04  0.16455545298E+04  0.00000000000E+00 0. -1.
         24    1    1    2    0    0  0.18392952516E+03  0.18948815032E+03 -0.57354027845E+03  0.63644026330E+03  0.79824359746E+02 0.  0.
        -24    1    1    2    0    0 -0.18392952516E+03 -0.18948815032E+03 -0.10222790456E+04  0.10588494723E+04  0.79824359746E+02 0.  0.
<mgrwt>
<rscale>  0 0.27587635E+03</rscale>
<asrwt>0</asrwt>
<pdfrwt beam="1">  1       22 0.99473258E+00 0.27587635E+03</pdfrwt>
<pdfrwt beam="2">0</pdfrwt>
<totfact> 0.17239890E-03</totfact>
</mgrwt>
</event>
<event>
 4    1  0.8237115E+000  0.3682729E+03  0.7818608E-02  0.9782194E-01
         22   -1    0    0    0    0  0.00000000000E+00  0.00000000000E+00  0.29574708272E+02  0.29574708272E+02  0.00000000000E+00 0.  1.
         22   -1    0    0    0    0 -0.00000000000E+00 -0.00000000000E+00 -0.61167964469E+04  0.61167964469E+04  0.00000000000E+00 0.  1.
         24    1    1    2    0    0  0.13428973862E+03 -0.33349555408E+03 -0.45810851878E+04  0.45958640585E+04  0.79824359746E+02 0.  0.
        -24    1    1    2    0    0 -0.13428973862E+03  0.33349555408E+03 -0.15061365509E+04  0.15505070966E+04  0.79824359746E+02 0.  0.
<mgrwt>
<rscale>  0 0.36827292E+03</rscale>
<asrwt>0</asrwt>
<pdfrwt beam="1">  1       22 0.59160169E+00 0.36827292E+03</pdfrwt>
<pdfrwt beam="2">0</pdfrwt>
<totfact> 0.27000651E-07</totfact>
</mgrwt>
</event>
<event>
 4    1  0.8237115E+000  0.3294205E+03  0.7818608E-02  0.9919415E-01
         22   -1    0    0    0    0  0.00000000000E+00  0.00000000000E+00  0.46770751766E+02  0.46770751766E+02  0.00000000000E+00 0.  1.
         22   -1    0    0    0    0 -0.00000000000E+00 -0.00000000000E+00 -0.24672080294E+04  0.24672080294E+04  0.00000000000E+00 0.  1.
         24    1    1    2    0    0  0.30121283840E+03 -0.10684926708E+03 -0.15170413958E+04  0.15523957179E+04  0.79824359746E+02 0.  0.
        -24    1    1    2    0    0 -0.30121283840E+03  0.10684926708E+03 -0.90339588189E+03  0.96158306335E+03  0.79824359746E+02 0.  0.
<mgrwt>
<rscale>  0 0.32942050E+03</rscale>
<asrwt>0</asrwt>
<pdfrwt beam="1">  1       22 0.93536707E+00 0.32942050E+03</pdfrwt>
<pdfrwt beam="2">0</pdfrwt>
<totfact> 0.64017808E-04</totfact>
</mgrwt>
</event>
<event>
 4    1  0.8237115E+000  0.1959637E+03  0.7818608E-02  0.1061417E+00
         22   -1    0    0    0    0  0.00000000000E+00  0.00000000000E+00  0.15766437905E+02  0.15766437905E+02  0.00000000000E+00 0.  1.
         22   -1    0    0    0    0 -0.00000000000E+00 -0.00000000000E+00 -0.29295263647E+04  0.29295263647E+04  0.00000000000E+00 0.  1.
         24    1    1    2    0    0  0.44379857206E+02 -0.17337893589E+03 -0.20615277296E+04  0.20708206912E+04  0.79824359746E+02 0.  0.
        -24    1    1    2    0    0 -0.44379857206E+02  0.17337893589E+03 -0.85223219723E+03  0.87447211135E+03  0.79824359746E+02 0.  0.
<mgrwt>
<rscale>  0 0.19596366E+03</rscale>
<asrwt>0</asrwt>
<pdfrwt beam="1">  1       22 0.31542623E+00 0.19596366E+03</pdfrwt>
<pdfrwt beam="2">0</pdfrwt>
<totfact> 0.16124108E-03</totfact>
</mgrwt>
</event>
<event>
 4    1  0.8237115E+000  0.1569133E+03  0.7818608E-02  0.1094275E+00
         22   -1    0    0    0    0  0.00000000000E+00  0.00000000000E+00  0.45041379382E+02  0.45041379382E+02  0.00000000000E+00 0. -1.
         22   -1    0    0    0    0 -0.00000000000E+00 -0.00000000000E+00 -0.66999853526E+03  0.66999853526E+03  0.00000000000E+00 0. -1.
         24    1    1    2    0    0 -0.13475150912E+03 -0.95859515109E+01 -0.15907567975E+03  0.22344319183E+03  0.79824359746E+02 0.  0.
        -24    1    1    2    0    0  0.13475150912E+03  0.95859515109E+01 -0.46588147612E+03  0.49159672281E+03  0.79824359746E+02 0.  0.
<mgrwt>
<rscale>  0 0.15691331E+03</rscale>
<asrwt>0</asrwt>
<pdfrwt beam="1">  1       22 0.90081289E+00 0.15691331E+03</pdfrwt>
<pdfrwt beam="2">0</pdfrwt>
<totfact> 0.14632186E-02</totfact>
</mgrwt>
</event>
<event>
 4    1  0.8237115E+000  0.1350841E+03  0.7818608E-02  0.1117620E+00
         22   -1    0    0    0    0  0.00000000000E+00  0.00000000000E+00  0.43781488714E+02  0.43781488714E+02  0.00000000000E+00 0. -1.
         22   -1    0    0    0    0 -0.00000000000E+00 -0.00000000000E+00 -0.25989830884E+04  0.25989830884E+04  0.00000000000E+00 0. -1.
         24    1    1    2    0    0  0.62424331981E+02 -0.89325128083E+02 -0.66798316977E+02  0.15069744288E+03  0.79824359746E+02 0.  0.
        -24    1    1    2    0    0 -0.62424331981E+02  0.89325128083E+02 -0.24884032827E+04  0.24920671342E+04  0.79824359746E+02 0.  0.
<mgrwt>
<rscale>  0 0.13508406E+03</rscale>
<asrwt>0</asrwt>
<pdfrwt beam="1">  1       22 0.87561870E+00 0.13508406E+03</pdfrwt>
<pdfrwt beam="2">0</pdfrwt>
<totfact> 0.54903860E-04</totfact>
</mgrwt>
</event>
<event>
 4    1  0.8237115E+000  0.2009514E+03  0.7818608E-02  0.1057827E+00
         22   -1    0    0    0    0  0.00000000000E+00  0.00000000000E+00  0.42658728268E+02  0.42658728268E+02  0.00000000000E+00 0. -1.
         22   -1    0    0    0    0 -0.00000000000E+00 -0.00000000000E+00 -0.95851211451E+03  0.95851211451E+03  0.00000000000E+00 0. -1.
         24    1    1    2    0    0  0.16600182405E+03 -0.80330044692E+02 -0.51369345016E+03  0.55159986477E+03  0.79824359746E+02 0.  0.
        -24    1    1    2    0    0 -0.16600182405E+03  0.80330044692E+02 -0.40215993608E+03  0.44957097801E+03  0.79824359746E+02 0.  0.
<mgrwt>
<rscale>  0 0.20095136E+03</rscale>
<asrwt>0</asrwt>
<pdfrwt beam="1">  1       22 0.85315406E+00 0.20095136E+03</pdfrwt>
<pdfrwt beam="2">0</pdfrwt>
<totfact> 0.80145945E-03</totfact>
</mgrwt>
</event>
<event>
 4    1  0.8237115E+000  0.2144299E+03  0.7818608E-02  0.1048668E+00
         22   -1    0    0    0    0  0.00000000000E+00  0.00000000000E+00  0.38228077257E+02  0.38228077257E+02  0.00000000000E+00 0. -1.
         22   -1    0    0    0    0 -0.00000000000E+00 -0.00000000000E+00 -0.22386148463E+04  0.22386148463E+04  0.00000000000E+00 0. -1.
         24    1    1    2    0    0 -0.30532342439E+02  0.19666221116E+03 -0.32580739528E+03  0.39003927553E+03  0.79824359746E+02 0.  0.
        -24    1    1    2    0    0  0.30532342439E+02 -0.19666221116E+03 -0.18745793738E+04  0.18868036481E+04  0.79824359746E+02 0.  0.
<mgrwt>
<rscale>  0 0.21442989E+03</rscale>
<asrwt>0</asrwt>
<pdfrwt beam="1">  1       22 0.76460814E+00 0.21442989E+03</pdfrwt>
<pdfrwt beam="2">0</pdfrwt>
<totfact> 0.11563842E-03</totfact>
</mgrwt>
</event>
<event>
 4    1  0.8237115E+000  0.3090649E+03  0.7818608E-02  0.9999700E-01
         22   -1    0    0    0    0  0.00000000000E+00  0.00000000000E+00  0.42746340146E+02  0.42746340146E+02  0.00000000000E+00 0. -1.
         22   -1    0    0    0    0 -0.00000000000E+00 -0.00000000000E+00 -0.32740402759E+04  0.32740402759E+04  0.00000000000E+00 0. -1.
         24    1    1    2    0    0 -0.12974087265E+03  0.26891727554E+03 -0.68122173793E+03  0.74805359417E+03  0.79824359746E+02 0.  0.
        -24    1    1    2    0    0  0.12974087265E+03 -0.26891727554E+03 -0.25500721978E+04  0.25687330219E+04  0.79824359746E+02 0.  0.
<mgrwt>
<rscale>  0 0.30906492E+03</rscale>
<asrwt>0</asrwt>
<pdfrwt beam="1">  1       22 0.85486742E+00 0.30906492E+03</pdfrwt>
<pdfrwt beam="2">0</pdfrwt>
<totfact> 0.22954063E-04</totfact>
</mgrwt>
</event>
<event>
 4    1  0.8237115E+000  0.1167941E+03  0.7818608E-02  0.1141290E+00
         22   -1    0    0    0    0  0.00000000000E+00  0.00000000000E+00  0.44296831520E+02  0.44296831520E+02  0.00000000000E+00 0.  1.
         22   -1    0    0    0    0 -0.00000000000E+00 -0.00000000000E+00 -0.45695063311E+03  0.45695063311E+03  0.00000000000E+00 0.  1.
         24    1    1    2    0    0 -0.38223099857E+02 -0.76209728894E+02 -0.34944455607E+03  0.36844586348E+03  0.79824359746E+02 0.  0.
        -24    1    1    2    0    0  0.38223099857E+02  0.76209728894E+02 -0.63209245528E+02  0.13280160116E+03  0.79824359746E+02 0.  0.
<mgrwt>
<rscale>  0 0.11679408E+03</rscale>
<asrwt>0</asrwt>
<pdfrwt beam="1">  1       22 0.88594466E+00 0.11679408E+03</pdfrwt>
<pdfrwt beam="2">0</pdfrwt>
<totfact> 0.28968628E-02</totfact>
</mgrwt>
</event>
<event>
 4    1  0.8598815E+000  0.3379102E+03  0.7818608E-02  0.9887753E-01
         22   -1    0    0    0    0  0.00000000000E+00  0.00000000000E+00  0.49612720244E+02  0.49612720244E+02  0.00000000000E+00 0. -1.
         22   -1    0    0    0    0 -0.00000000000E+00 -0.00000000000E+00 -0.39378926583E+04  0.39378926583E+04  0.00000000000E+00 0. -1.
         24    1    1    2    0    0  0.78212764590E+02 -0.31889518745E+03 -0.65890036262E+03  0.74049510018E+03  0.79824359746E+02 0.  0.
        -24    1    1    2    0    0 -0.78212764590E+02  0.31889518745E+03 -0.32293795754E+04  0.32470102783E+04  0.79824359746E+02 0.  0.
<mgrwt>
<rscale>  0 0.33791020E+03</rscale>
<asrwt>0</asrwt>
<pdfrwt beam="1">  1       22 0.99231490E+00 0.33791020E+03</pdfrwt>
<pdfrwt beam="2">0</pdfrwt>
<totfact> 0.57573608E-05</totfact>
</mgrwt>
</event>
<event>
 4    1  0.8237115E+000  0.2055603E+03  0.7818608E-02  0.1054609E+00
         22   -1    0    0    0    0  0.00000000000E+00  0.00000000000E+00  0.26318116602E+02  0.26318116602E+02  0.00000000000E+00 0.  1.
         22   -1    0    0    0    0 -0.00000000000E+00 -0.00000000000E+00 -0.21039544277E+04  0.21039544277E+04  0.00000000000E+00 0.  1.
         24    1    1    2    0    0  0.81396047905E+02  0.17104910968E+03 -0.15572338104E+04  0.15707425579E+04  0.79824359746E+02 0.  0.
        -24    1    1    2    0    0 -0.81396047905E+02 -0.17104910968E+03 -0.52040250062E+03  0.55952998632E+03  0.79824359746E+02 0.  0.
<mgrwt>
<rscale>  0 0.20556031E+03</rscale>
<asrwt>0</asrwt>
<pdfrwt beam="1">  1       22 0.52634176E+00 0.20556031E+03</pdfrwt>
<pdfrwt beam="2">0</pdfrwt>
<totfact> 0.24533751E-03</totfact>
</mgrwt>
</event>
<event>
 4    1  0.8237115E+000  0.2133797E+03  0.7818608E-02  0.1049355E+00
         22   -1    0    0    0    0  0.00000000000E+00  0.00000000000E+00  0.28209498164E+02  0.28209498164E+02  0.00000000000E+00 0.  1.
         22   -1    0    0    0    0 -0.00000000000E+00 -0.00000000000E+00 -0.27573113645E+04  0.27573113645E+04  0.00000000000E+00 0.  1.
         24    1    1    2    0    0 -0.14509052753E+03 -0.13456482585E+03 -0.22613821405E+04  0.22714268792E+04  0.79824359746E+02 0.  0.
        -24    1    1    2    0    0  0.14509052753E+03  0.13456482585E+03 -0.46771972578E+03  0.51409398346E+03  0.79824359746E+02 0.  0.
<mgrwt>
<rscale>  0 0.21337967E+03</rscale>
<asrwt>0</asrwt>
<pdfrwt beam="1">  1       22 0.56418881E+00 0.21337967E+03</pdfrwt>
<pdfrwt beam="2">0</pdfrwt>
<totfact> 0.88895634E-04</totfact>
</mgrwt>
</event>
<event>
 4    1  0.8237115E+000  0.3313250E+03  0.7818608E-02  0.9912224E-01
         22   -1    0    0    0    0  0.00000000000E+00  0.00000000000E+00  0.44359293573E+02  0.44359293573E+02  0.00000000000E+00 0. -1.
         22   -1    0    0    0    0 -0.00000000000E+00 -0.00000000000E+00 -0.24821877546E+04  0.24821877546E+04  0.00000000000E+00 0. -1.
         24    1    1    2    0    0 -0.32001164650E+03  0.31573353754E+02 -0.11495637076E+04  0.11963582143E+04  0.79824359746E+02 0.  0.
        -24    1    1    2    0    0  0.32001164650E+03 -0.31573353754E+02 -0.12882647534E+04  0.13301888339E+04  0.79824359746E+02 0.  0.
<mgrwt>
<rscale>  0 0.33132501E+03</rscale>
<asrwt>0</asrwt>
<pdfrwt beam="1">  1       22 0.88730177E+00 0.33132501E+03</pdfrwt>
<pdfrwt beam="2">0</pdfrwt>
<totfact> 0.68306023E-04</totfact>
</mgrwt>
</event>
<event>
 4    1  0.8237115E+000  0.2924250E+03  0.7818608E-02  0.1007044E+00
         22   -1    0    0    0    0  0.00000000000E+00  0.00000000000E+00  0.44540028692E+02  0.44540028692E+02  0.00000000000E+00 0.  1.
         22   -1    0    0    0    0 -0.00000000000E+00 -0.00000000000E+00 -0.19662513574E+04  0.19662513574E+04  0.00000000000E+00 0.  1.
         24    1    1    2    0    0  0.33964840426E+02  0.27926129040E+03 -0.80649092723E+03  0.85786946723E+03  0.79824359746E+02 0.  0.
        -24    1    1    2    0    0 -0.33964840426E+02 -0.27926129040E+03 -0.11152204014E+04  0.11529219188E+04  0.79824359746E+02 0.  0.
<mgrwt>
<rscale>  0 0.29242505E+03</rscale>
<asrwt>0</asrwt>
<pdfrwt beam="1">  1       22 0.89086871E+00 0.29242505E+03</pdfrwt>
<pdfrwt beam="2">0</pdfrwt>
<totfact> 0.13871018E-03</totfact>
</mgrwt>
</event>
<event>
 4    1  0.8237115E+000  0.3370411E+03  0.7818608E-02  0.9890948E-01
         22   -1    0    0    0    0  0.00000000000E+00  0.00000000000E+00  0.43824227159E+02  0.43824227159E+02  0.00000000000E+00 0.  1.
         22   -1    0    0    0    0 -0.00000000000E+00 -0.00000000000E+00 -0.28253391012E+04  0.28253391012E+04  0.00000000000E+00 0.  1.
         24    1    1    2    0    0 -0.31470906704E+03  0.90459924897E+02 -0.97857275001E+03  0.10349885750E+04  0.79824359746E+02 0.  0.
        -24    1    1    2    0    0  0.31470906704E+03 -0.90459924897E+02 -0.18029421241E+04  0.18341747534E+04  0.79824359746E+02 0.  0.
<mgrwt>
<rscale>  0 0.33704113E+03</rscale>
<asrwt>0</asrwt>
<pdfrwt beam="1">  1       22 0.87641463E+00 0.33704113E+03</pdfrwt>
<pdfrwt beam="2">0</pdfrwt>
<totfact> 0.43041310E-04</totfact>
</mgrwt>
</event>
<event>
 4    1  0.8237115E+000  0.1623522E+03  0.7818608E-02  0.1089102E+00
         22   -1    0    0    0    0  0.00000000000E+00  0.00000000000E+00  0.24698084176E+02  0.24698084176E+02  0.00000000000E+00 0. -1.
         22   -1    0    0    0    0 -0.00000000000E+00 -0.00000000000E+00 -0.19251807258E+04  0.19251807258E+04  0.00000000000E+00 0. -1.
         24    1    1    2    0    0 -0.97099562592E+01 -0.14103904910E+03 -0.16010843160E+04  0.16092946318E+04  0.79824359746E+02 0.  0.
        -24    1    1    2    0    0  0.97099562592E+01  0.14103904910E+03 -0.29939832561E+03  0.34058417815E+03  0.79824359746E+02 0.  0.
<mgrwt>
<rscale>  0 0.16235216E+03</rscale>
<asrwt>0</asrwt>
<pdfrwt beam="1">  1       22 0.49394638E+00 0.16235216E+03</pdfrwt>
<pdfrwt beam="2">0</pdfrwt>
<totfact> 0.34230184E-03</totfact>
</mgrwt>
</event>
<event>
 4    1  0.8237115E+000  0.2876151E+03  0.7818608E-02  0.1009184E+00
         22   -1    0    0    0    0  0.00000000000E+00  0.00000000000E+00  0.41387544432E+02  0.41387544432E+02  0.00000000000E+00 0.  1.
         22   -1    0    0    0    0 -0.00000000000E+00 -0.00000000000E+00 -0.22804840893E+04  0.22804840893E+04  0.00000000000E+00 0.  1.
         24    1    1    2    0    0  0.20502517901E+03  0.18524356756E+03 -0.15276153601E+04  0.15544552487E+04  0.79824359746E+02 0.  0.
        -24    1    1    2    0    0 -0.20502517901E+03 -0.18524356756E+03 -0.71148118479E+03  0.76741638506E+03  0.79824359746E+02 0.  0.
<mgrwt>
<rscale>  0 0.28761508E+03</rscale>
<asrwt>0</asrwt>
<pdfrwt beam="1">  1       22 0.82779196E+00 0.28761508E+03</pdfrwt>
<pdfrwt beam="2">0</pdfrwt>
<totfact> 0.99195904E-04</totfact>
</mgrwt>
</event>
<event>
 4    1  0.8237115E+000  0.1912814E+03  0.7818608E-02  0.1064894E+00
         22   -1    0    0    0    0  0.00000000000E+00  0.00000000000E+00  0.48414355382E+02  0.48414355382E+02  0.00000000000E+00 0. -1.
         22   -1    0    0    0    0 -0.00000000000E+00 -0.00000000000E+00 -0.13174689825E+04  0.13174689825E+04  0.00000000000E+00 0. -1.
         24    1    1    2    0    0 -0.60685008195E+02 -0.16289248638E+03 -0.10804685768E+04  0.10972697508E+04  0.79824359746E+02 0.  0.
        -24    1    1    2    0    0  0.60685008195E+02  0.16289248638E+03 -0.18858605032E+03  0.26861358700E+03  0.79824359746E+02 0.  0.
<mgrwt>
<rscale>  0 0.19128137E+03</rscale>
<asrwt>0</asrwt>
<pdfrwt beam="1">  1       22 0.96827817E+00 0.19128137E+03</pdfrwt>
<pdfrwt beam="2">0</pdfrwt>
<totfact> 0.32007254E-03</totfact>
</mgrwt>
</event>
<event>
 4    1  0.8237115E+000  0.2071683E+03  0.7818608E-02  0.1053508E+00
         22   -1    0    0    0    0  0.00000000000E+00  0.00000000000E+00  0.34342878402E+02  0.34342878402E+02  0.00000000000E+00 0.  1.
         22   -1    0    0    0    0 -0.00000000000E+00 -0.00000000000E+00 -0.49407437959E+04  0.49407437959E+04  0.00000000000E+00 0.  1.
         24    1    1    2    0    0  0.17554114056E+03  0.75710617318E+02 -0.30315143045E+03  0.36717776049E+03  0.79824359746E+02 0.  0.
        -24    1    1    2    0    0 -0.17554114056E+03 -0.75710617318E+02 -0.46032494871E+04  0.46079089139E+04  0.79824359746E+02 0.  0.
<mgrwt>
<rscale>  0 0.20716833E+03</rscale>
<asrwt>0</asrwt>
<pdfrwt beam="1">  1       22 0.68676140E+00 0.20716833E+03</pdfrwt>
<pdfrwt beam="2">0</pdfrwt>
<totfact> 0.12440289E-05</totfact>
</mgrwt>
</event>
<event>
 4    1  0.8237115E+000  0.3003638E+03  0.7818608E-02  0.1003608E+00
         22   -1    0    0    0    0  0.00000000000E+00  0.00000000000E+00  0.40112581435E+02  0.40112581435E+02  0.00000000000E+00 0.  1.
         22   -1    0    0    0    0 -0.00000000000E+00 -0.00000000000E+00 -0.36564127935E+04  0.36564127935E+04  0.00000000000E+00 0.  1.
         24    1    1    2    0    0 -0.28947136534E+03  0.72654043669E+01 -0.66151068394E+03  0.72650861717E+03  0.79824359746E+02 0.  0.
        -24    1    1    2    0    0  0.28947136534E+03 -0.72654043669E+01 -0.29547895281E+04  0.29700167578E+04  0.79824359746E+02 0.  0.
<mgrwt>
<rscale>  0 0.30036376E+03</rscale>
<asrwt>0</asrwt>
<pdfrwt beam="1">  1       22 0.80223674E+00 0.30036376E+03</pdfrwt>
<pdfrwt beam="2">0</pdfrwt>
<totfact> 0.13704284E-04</totfact>
</mgrwt>
</event>
<event>
 4    1  0.8237115E+000  0.2530253E+03  0.7818608E-02  0.1026034E+00
         22   -1    0    0    0    0  0.00000000000E+00  0.00000000000E+00  0.23117092209E+02  0.23117092209E+02  0.00000000000E+00 0.  1.
         22   -1    0    0    0    0 -0.00000000000E+00 -0.00000000000E+00 -0.31412099622E+04  0.31412099622E+04  0.00000000000E+00 0.  1.
         24    1    1    2    0    0  0.19608483186E+03  0.13856619374E+03 -0.10147563346E+04  0.10458260842E+04  0.79824359746E+02 0.  0.
        -24    1    1    2    0    0 -0.19608483186E+03 -0.13856619374E+03 -0.21033365354E+04  0.21185009702E+04  0.79824359746E+02 0.  0.
<mgrwt>
<rscale>  0 0.25302526E+03</rscale>
<asrwt>0</asrwt>
<pdfrwt beam="1">  1       22 0.46237408E+00 0.25302526E+03</pdfrwt>
<pdfrwt beam="2">0</pdfrwt>
<totfact> 0.69704198E-04</totfact>
</mgrwt>
</event>
<event>
 4    1  0.8237115E+000  0.1278828E+03  0.7818608E-02  0.1126415E+00
         22   -1    0    0    0    0  0.00000000000E+00  0.00000000000E+00  0.29324627475E+02  0.29324627475E+02  0.00000000000E+00 0.  1.
         22   -1    0    0    0    0 -0.00000000000E+00 -0.00000000000E+00 -0.14509023299E+04  0.14509023299E+04  0.00000000000E+00 0.  1.
         24    1    1    2    0    0 -0.68372638992E+02  0.72850901822E+02 -0.13008192562E+03  0.18241520617E+03  0.79824359746E+02 0.  0.
        -24    1    1    2    0    0  0.68372638992E+02 -0.72850901822E+02 -0.12914957768E+04  0.12978117512E+04  0.79824359746E+02 0.  0.
<mgrwt>
<rscale>  0 0.12788276E+03</rscale>
<asrwt>0</asrwt>
<pdfrwt beam="1">  1       22 0.58650310E+00 0.12788276E+03</pdfrwt>
<pdfrwt beam="2">0</pdfrwt>
<totfact> 0.53878616E-03</totfact>
</mgrwt>
</event>
<event>
 4    1  0.8237115E+000  0.2807942E+03  0.7818608E-02  0.1012297E+00
         22   -1    0    0    0    0  0.00000000000E+00  0.00000000000E+00  0.40811132699E+02  0.40811132699E+02  0.00000000000E+00 0.  1.
         22   -1    0    0    0    0 -0.00000000000E+00 -0.00000000000E+00 -0.24290958129E+04  0.24290958129E+04  0.00000000000E+00 0.  1.
         24    1    1    2    0    0 -0.34920697677E+02 -0.26693449740E+03 -0.17528266951E+04  0.17751751554E+04  0.79824359746E+02 0.  0.
        -24    1    1    2    0    0  0.34920697677E+02  0.26693449740E+03 -0.63545798516E+03  0.69473179021E+03  0.79824359746E+02 0.  0.
<mgrwt>
<rscale>  0 0.28079425E+03</rscale>
<asrwt>0</asrwt>
<pdfrwt beam="1">  1       22 0.81618186E+00 0.28079425E+03</pdfrwt>
<pdfrwt beam="2">0</pdfrwt>
<totfact> 0.82196715E-04</totfact>
</mgrwt>
</event>
<event>
 4    1  0.8237115E+000  0.2801376E+03  0.7818608E-02  0.1012602E+00
         22   -1    0    0    0    0  0.00000000000E+00  0.00000000000E+00  0.19893510192E+02  0.19893510192E+02  0.00000000000E+00 0.  1.
         22   -1    0    0    0    0 -0.00000000000E+00 -0.00000000000E+00 -0.40337881154E+04  0.40337881154E+04  0.00000000000E+00 0.  1.
         24    1    1    2    0    0 -0.18941939191E+03 -0.19032979469E+03 -0.17060013788E+04  0.17288486832E+04  0.79824359746E+02 0.  0.
        -24    1    1    2    0    0  0.18941939191E+03  0.19032979469E+03 -0.23078932265E+04  0.23248329424E+04  0.79824359746E+02 0.  0.
<mgrwt>
<rscale>  0 0.28013758E+03</rscale>
<asrwt>0</asrwt>
<pdfrwt beam="1">  1       22 0.39791686E+00 0.28013758E+03</pdfrwt>
<pdfrwt beam="2">0</pdfrwt>
<totfact> 0.20147552E-04</totfact>
</mgrwt>
</event>
<event>
 4    1  0.8237115E+000  0.2821749E+03  0.7818608E-02  0.1011659E+00
         22   -1    0    0    0    0  0.00000000000E+00  0.00000000000E+00  0.31295931391E+02  0.31295931391E+02  0.00000000000E+00 0. -1.
         22   -1    0    0    0    0 -0.00000000000E+00 -0.00000000000E+00 -0.26997600442E+04  0.26997600442E+04  0.00000000000E+00 0. -1.
         24    1    1    2    0    0  0.19459903636E+03 -0.18810093536E+03 -0.10064339938E+04  0.10452425839E+04  0.79824359746E+02 0.  0.
        -24    1    1    2    0    0 -0.19459903636E+03  0.18810093536E+03 -0.16620301190E+04  0.16858133917E+04  0.79824359746E+02 0.  0.
<mgrwt>
<rscale>  0 0.28217490E+03</rscale>
<asrwt>0</asrwt>
<pdfrwt beam="1">  1       22 0.62591271E+00 0.28217490E+03</pdfrwt>
<pdfrwt beam="2">0</pdfrwt>
<totfact> 0.84140834E-04</totfact>
</mgrwt>
</event>
<event>
 4    1  0.8237115E+000  0.2193628E+03  0.7818608E-02  0.1045497E+00
         22   -1    0    0    0    0  0.00000000000E+00  0.00000000000E+00  0.47883174705E+02  0.47883174705E+02  0.00000000000E+00 0. -1.
         22   -1    0    0    0    0 -0.00000000000E+00 -0.00000000000E+00 -0.10066998906E+04  0.10066998906E+04  0.00000000000E+00 0. -1.
         24    1    1    2    0    0  0.67190774216E+01 -0.20421304706E+03 -0.45740426535E+03  0.50728562464E+03  0.79824359746E+02 0.  0.
        -24    1    1    2    0    0 -0.67190774216E+01  0.20421304706E+03 -0.50141245051E+03  0.54729744063E+03  0.79824359746E+02 0.  0.
<mgrwt>
<rscale>  0 0.21936281E+03</rscale>
<asrwt>0</asrwt>
<pdfrwt beam="1">  1       22 0.95768934E+00 0.21936281E+03</pdfrwt>
<pdfrwt beam="2">0</pdfrwt>
<totfact> 0.60272365E-03</totfact>
</mgrwt>
</event>
<event>
 4    1  0.8237115E+000  0.3191699E+03  0.7818608E-02  0.9959040E-01
         22   -1    0    0    0    0  0.00000000000E+00  0.00000000000E+00  0.25802398319E+02  0.25802398319E+02  0.00000000000E+00 0. -1.
         22   -1    0    0    0    0 -0.00000000000E+00 -0.00000000000E+00 -0.43195615442E+04  0.43195615442E+04  0.00000000000E+00 0. -1.
         24    1    1    2    0    0 -0.30582363778E+03 -0.44377672264E+02 -0.27840519437E+04  0.28022873922E+04  0.79824359746E+02 0.  0.
        -24    1    1    2    0    0  0.30582363778E+03  0.44377672264E+02 -0.15097072022E+04  0.15430765503E+04  0.79824359746E+02 0.  0.
<mgrwt>
<rscale>  0 0.31916987E+03</rscale>
<asrwt>0</asrwt>
<pdfrwt beam="1">  1       22 0.51618102E+00 0.31916987E+03</pdfrwt>
<pdfrwt beam="2">0</pdfrwt>
<totfact> 0.80169743E-05</totfact>
</mgrwt>
</event>
<event>
 4    1  0.8237115E+000  0.1873271E+03  0.7818608E-02  0.1067917E+00
         22   -1    0    0    0    0  0.00000000000E+00  0.00000000000E+00  0.35921291406E+02  0.35921291406E+02  0.00000000000E+00 0.  1.
         22   -1    0    0    0    0 -0.00000000000E+00 -0.00000000000E+00 -0.98284077353E+03  0.98284077353E+03  0.00000000000E+00 0.  1.
         24    1    1    2    0    0 -0.29390845703E+02 -0.16690023180E+03 -0.51306892693E+03  0.54619699869E+03  0.79824359746E+02 0.  0.
        -24    1    1    2    0    0  0.29390845703E+02  0.16690023180E+03 -0.43385055520E+03  0.47256506625E+03  0.79824359746E+02 0.  0.
<mgrwt>
<rscale>  0 0.18732709E+03</rscale>
<asrwt>0</asrwt>
<pdfrwt beam="1">  1       22 0.71842368E+00 0.18732709E+03</pdfrwt>
<pdfrwt beam="2">0</pdfrwt>
<totfact> 0.97904488E-03</totfact>
</mgrwt>
</event>
<event>
 4    1  0.8237115E+000  0.2424416E+03  0.7818608E-02  0.1031782E+00
         22   -1    0    0    0    0  0.00000000000E+00  0.00000000000E+00  0.33903322428E+02  0.33903322428E+02  0.00000000000E+00 0. -1.
         22   -1    0    0    0    0 -0.00000000000E+00 -0.00000000000E+00 -0.27428892463E+04  0.27428892463E+04  0.00000000000E+00 0. -1.
         24    1    1    2    0    0  0.53662354076E+02  0.22254518162E+03 -0.51232786971E+03  0.56679606614E+03  0.79824359746E+02 0.  0.
        -24    1    1    2    0    0 -0.53662354076E+02 -0.22254518162E+03 -0.21966580542E+04  0.22099965026E+04  0.79824359746E+02 0.  0.
<mgrwt>
<rscale>  0 0.24244161E+03</rscale>
<asrwt>0</asrwt>
<pdfrwt beam="1">  1       22 0.67805984E+00 0.24244161E+03</pdfrwt>
<pdfrwt beam="2">0</pdfrwt>
<totfact> 0.69280300E-04</totfact>
</mgrwt>
</event>
<event>
 4    1  0.8237115E+000  0.2603538E+03  0.7818608E-02  0.1022230E+00
         22   -1    0    0    0    0  0.00000000000E+00  0.00000000000E+00  0.35154454677E+02  0.35154454677E+02  0.00000000000E+00 0. -1.
         22   -1    0    0    0    0 -0.00000000000E+00 -0.00000000000E+00 -0.19725310537E+04  0.19725310537E+04  0.00000000000E+00 0. -1.
         24    1    1    2    0    0 -0.14550978670E+03  0.20059677937E+03 -0.11192133606E+04  0.11490964454E+04  0.79824359746E+02 0.  0.
        -24    1    1    2    0    0  0.14550978670E+03 -0.20059677937E+03 -0.81816323845E+03  0.85858906298E+03  0.79824359746E+02 0.  0.
<mgrwt>
<rscale>  0 0.26035379E+03</rscale>
<asrwt>0</asrwt>
<pdfrwt beam="1">  1       22 0.70309433E+00 0.26035379E+03</pdfrwt>
<pdfrwt beam="2">0</pdfrwt>
<totfact> 0.19428011E-03</totfact>
</mgrwt>
</event>
<event>
 4    1  0.8237115E+000  0.4552481E+03  0.7818608E-02  0.9531632E-01
         22   -1    0    0    0    0  0.00000000000E+00  0.00000000000E+00  0.47180956616E+02  0.47180956616E+02  0.00000000000E+00 0.  1.
         22   -1    0    0    0    0 -0.00000000000E+00 -0.00000000000E+00 -0.50311192457E+04  0.50311192457E+04  0.00000000000E+00 0.  1.
         24    1    1    2    0    0 -0.86544166612E+02 -0.43976021892E+03 -0.33964839166E+04  0.34268577250E+04  0.79824359746E+02 0.  0.
        -24    1    1    2    0    0  0.86544166612E+02  0.43976021892E+03 -0.15874543725E+04  0.16514424774E+04  0.79824359746E+02 0.  0.
<mgrwt>
<rscale>  0 0.45524814E+03</rscale>
<asrwt>0</asrwt>
<pdfrwt beam="1">  1       22 0.94372281E+00 0.45524814E+03</pdfrwt>
<pdfrwt beam="2">0</pdfrwt>
<totfact> 0.64977525E-06</totfact>
</mgrwt>
</event>
<event>
 4    1  0.8237115E+000  0.3436294E+03  0.7818608E-02  0.9866981E-01
         22   -1    0    0    0    0  0.00000000000E+00  0.00000000000E+00  0.34337228146E+02  0.34337228146E+02  0.00000000000E+00 0.  1.
         22   -1    0    0    0    0 -0.00000000000E+00 -0.00000000000E+00 -0.39038178839E+04  0.39038178839E+04  0.00000000000E+00 0.  1.
         24    1    1    2    0    0  0.33371098600E+03 -0.18606334322E+02 -0.12551897547E+04  0.13013771423E+04  0.79824359746E+02 0.  0.
        -24    1    1    2    0    0 -0.33371098600E+03  0.18606334322E+02 -0.26142909010E+04  0.26367779697E+04  0.79824359746E+02 0.  0.
<mgrwt>
<rscale>  0 0.34362937E+03</rscale>
<asrwt>0</asrwt>
<pdfrwt beam="1">  1       22 0.68680763E+00 0.34362937E+03</pdfrwt>
<pdfrwt beam="2">0</pdfrwt>
<totfact> 0.11443884E-04</totfact>
</mgrwt>
</event>
<event>
 4    1  0.8237115E+000  0.1765138E+03  0.7818608E-02  0.1076617E+00
         22   -1    0    0    0    0  0.00000000000E+00  0.00000000000E+00  0.12728812974E+02  0.12728812974E+02  0.00000000000E+00 0. -1.
         22   -1    0    0    0    0 -0.00000000000E+00 -0.00000000000E+00 -0.25560592146E+04  0.25560592146E+04  0.00000000000E+00 0. -1.
         24    1    1    2    0    0 -0.93956428202E+02  0.12632248860E+03 -0.15360403541E+04  0.15461491129E+04  0.79824359746E+02 0.  0.
        -24    1    1    2    0    0  0.93956428202E+02 -0.12632248860E+03 -0.10072900475E+04  0.10226389146E+04  0.79824359746E+02 0.  0.
<mgrwt>
<rscale>  0 0.17651377E+03</rscale>
<asrwt>0</asrwt>
<pdfrwt beam="1">  1       22 0.25453237E+00 0.17651377E+03</pdfrwt>
<pdfrwt beam="2">0</pdfrwt>
<totfact> 0.36176729E-03</totfact>
</mgrwt>
</event>
<event>
 4    1  0.8237115E+000  0.2980414E+03  0.7818608E-02  0.1004601E+00
         22   -1    0    0    0    0  0.00000000000E+00  0.00000000000E+00  0.39318007183E+02  0.39318007183E+02  0.00000000000E+00 0. -1.
         22   -1    0    0    0    0 -0.00000000000E+00 -0.00000000000E+00 -0.26360019190E+04  0.26360019190E+04  0.00000000000E+00 0. -1.
         24    1    1    2    0    0  0.18083038509E+03  0.22306309534E+03 -0.18040595124E+04  0.18285129000E+04  0.79824359746E+02 0.  0.
        -24    1    1    2    0    0 -0.18083038509E+03 -0.22306309534E+03 -0.79262439934E+03  0.84680702613E+03  0.79824359746E+02 0.  0.
<mgrwt>
<rscale>  0 0.29804144E+03</rscale>
<asrwt>0</asrwt>
<pdfrwt beam="1">  1       22 0.78636583E+00 0.29804144E+03</pdfrwt>
<pdfrwt beam="2">0</pdfrwt>
<totfact> 0.65458864E-04</totfact>
</mgrwt>
</event>
<event>
 4    1  0.1180203E+001  0.2250517E+03  0.7818608E-02  0.1041952E+00
         22   -1    0    0    0    0  0.00000000000E+00  0.00000000000E+00  0.42006687931E+02  0.42006687931E+02  0.00000000000E+00 0. -1.
         22   -1    0    0    0    0 -0.00000000000E+00 -0.00000000000E+00 -0.32270872403E+04  0.32270872403E+04  0.00000000000E+00 0. -1.
         24    1    1    2    0    0  0.20891917500E+03 -0.25082609880E+02 -0.28861840528E+04  0.28949450209E+04  0.79824359746E+02 0.  0.
        -24    1    1    2    0    0 -0.20891917500E+03  0.25082609880E+02 -0.29889649961E+03  0.37414890737E+03  0.79824359746E+02 0.  0.
<mgrwt>
<rscale>  0 0.22505174E+03</rscale>
<asrwt>0</asrwt>
<pdfrwt beam="1">  1       22 0.84014343E+00 0.22505174E+03</pdfrwt>
<pdfrwt beam="2">0</pdfrwt>
<totfact> 0.24663052E-04</totfact>
</mgrwt>
</event>
<event>
 4    1  0.8237115E+000  0.1822011E+03  0.7818608E-02  0.1071959E+00
         22   -1    0    0    0    0  0.00000000000E+00  0.00000000000E+00  0.13204301820E+02  0.13204301820E+02  0.00000000000E+00 0. -1.
         22   -1    0    0    0    0 -0.00000000000E+00 -0.00000000000E+00 -0.33275307996E+04  0.33275307996E+04  0.00000000000E+00 0. -1.
         24    1    1    2    0    0 -0.11638331968E+03 -0.11523986813E+03 -0.83130541272E+03  0.85103814364E+03  0.79824359746E+02 0.  0.
        -24    1    1    2    0    0  0.11638331968E+03  0.11523986813E+03 -0.24830210851E+04  0.24896969578E+04  0.79824359746E+02 0.  0.
<mgrwt>
<rscale>  0 0.18220108E+03</rscale>
<asrwt>0</asrwt>
<pdfrwt beam="1">  1       22 0.26417114E+00 0.18220108E+03</pdfrwt>
<pdfrwt beam="2">0</pdfrwt>
<totfact> 0.11290398E-03</totfact>
</mgrwt>
</event>
<event>
 4    1  0.8237115E+000  0.3107745E+03  0.7818608E-02  0.9992704E-01
         22   -1    0    0    0    0  0.00000000000E+00  0.00000000000E+00  0.32316071859E+02  0.32316071859E+02  0.00000000000E+00 0. -1.
         22   -1    0    0    0    0 -0.00000000000E+00 -0.00000000000E+00 -0.40102820943E+04  0.40102820943E+04  0.00000000000E+00 0. -1.
         24    1    1    2    0    0  0.28126330816E+03 -0.10535570203E+03 -0.96876142789E+03  0.10173885713E+04  0.79824359746E+02 0.  0.
        -24    1    1    2    0    0 -0.28126330816E+03  0.10535570203E+03 -0.30092045946E+04  0.30252095949E+04  0.79824359746E+02 0.  0.
<mgrwt>
<rscale>  0 0.31077452E+03</rscale>
<asrwt>0</asrwt>
<pdfrwt beam="1">  1       22 0.64624399E+00 0.31077452E+03</pdfrwt>
<pdfrwt beam="2">0</pdfrwt>
<totfact> 0.10264642E-04</totfact>
</mgrwt>
</event>
<event>
 4    1  0.8237115E+000  0.1342829E+03  0.7818608E-02  0.1118568E+00
         22   -1    0    0    0    0  0.00000000000E+00  0.00000000000E+00  0.43278236078E+02  0.43278236078E+02  0.00000000000E+00 0. -1.
         22   -1    0    0    0    0 -0.00000000000E+00 -0.00000000000E+00 -0.72933648284E+03  0.72933648284E+03  0.00000000000E+00 0. -1.
         24    1    1    2    0    0  0.38627206280E+02  0.10083602927E+03 -0.90085759307E+02  0.16170138621E+03  0.79824359746E+02 0.  0.
        -24    1    1    2    0    0 -0.38627206280E+02 -0.10083602927E+03 -0.59597248746E+03  0.61091333271E+03  0.79824359746E+02 0.  0.
<mgrwt>
<rscale>  0 0.13428289E+03</rscale>
<asrwt>0</asrwt>
<pdfrwt beam="1">  1       22 0.86556394E+00 0.13428289E+03</pdfrwt>
<pdfrwt beam="2">0</pdfrwt>
<totfact> 0.13074611E-02</totfact>
</mgrwt>
</event>
<event>
 4    1  0.8237115E+000  0.2600406E+03  0.7818608E-02  0.1022390E+00
         22   -1    0    0    0    0  0.00000000000E+00  0.00000000000E+00  0.44828034051E+02  0.44828034051E+02  0.00000000000E+00 0. -1.
         22   -1    0    0    0    0 -0.00000000000E+00 -0.00000000000E+00 -0.30936324388E+04  0.30936324388E+04  0.00000000000E+00 0. -1.
         24    1    1    2    0    0  0.20836922446E+03 -0.13353440588E+03 -0.40111407595E+03  0.47803096300E+03  0.79824359746E+02 0.  0.
        -24    1    1    2    0    0 -0.20836922446E+03  0.13353440588E+03 -0.26476903288E+04  0.26604295099E+04  0.79824359746E+02 0.  0.
<mgrwt>
<rscale>  0 0.26004057E+03</rscale>
<asrwt>0</asrwt>
<pdfrwt beam="1">  1       22 0.89657775E+00 0.26004057E+03</pdfrwt>
<pdfrwt beam="2">0</pdfrwt>
<totfact> 0.27607943E-04</totfact>
</mgrwt>
</event>
<event>
 4    1  0.8237115E+000  0.2440194E+03  0.7818608E-02  0.1030905E+00
         22   -1    0    0    0    0  0.00000000000E+00  0.00000000000E+00  0.35484907232E+02  0.35484907232E+02  0.00000000000E+00 0. -1.
         22   -1    0    0    0    0 -0.00000000000E+00 -0.00000000000E+00 -0.18243567151E+04  0.18243567151E+04  0.00000000000E+00 0. -1.
         24    1    1    2    0    0 -0.21986268961E+03 -0.69526610567E+02 -0.63109283542E+03  0.67662666751E+03  0.79824359746E+02 0.  0.
        -24    1    1    2    0    0  0.21986268961E+03  0.69526610567E+02 -0.11577789724E+04  0.11832149548E+04  0.79824359746E+02 0.  0.
<mgrwt>
<rscale>  0 0.24401943E+03</rscale>
<asrwt>0</asrwt>
<pdfrwt beam="1">  1       22 0.70972051E+00 0.24401943E+03</pdfrwt>
<pdfrwt beam="2">0</pdfrwt>
<totfact> 0.23665300E-03</totfact>
</mgrwt>
</event>
<event>
 4    1  0.8237115E+000  0.1270146E+03  0.7818608E-02  0.1127518E+00
         22   -1    0    0    0    0  0.00000000000E+00  0.00000000000E+00  0.28221811431E+02  0.28221811431E+02  0.00000000000E+00 0. -1.
         22   -1    0    0    0    0 -0.00000000000E+00 -0.00000000000E+00 -0.16839783582E+04  0.16839783582E+04  0.00000000000E+00 0. -1.
         24    1    1    2    0    0 -0.71562927967E+02  0.68114045978E+02 -0.15236628968E+04  0.15289477844E+04  0.79824359746E+02 0.  0.
        -24    1    1    2    0    0  0.71562927967E+02 -0.68114045978E+02 -0.13209364993E+03  0.18325238519E+03  0.79824359746E+02 0.  0.
<mgrwt>
<rscale>  0 0.12701458E+03</rscale>
<asrwt>0</asrwt>
<pdfrwt beam="1">  1       22 0.56443091E+00 0.12701458E+03</pdfrwt>
<pdfrwt beam="2">0</pdfrwt>
<totfact> 0.39329673E-03</totfact>
</mgrwt>
</event>
<event>
 4    1  0.8237115E+000  0.2417901E+03  0.7818608E-02  0.1032146E+00
         22   -1    0    0    0    0  0.00000000000E+00  0.00000000000E+00  0.46045036499E+02  0.46045036499E+02  0.00000000000E+00 0. -1.
         22   -1    0    0    0    0 -0.00000000000E+00 -0.00000000000E+00 -0.39159812875E+04  0.39159812875E+04  0.00000000000E+00 0. -1.
         24    1    1    2    0    0  0.18624011562E+03  0.13192859955E+03 -0.35634641274E+04  0.35716577457E+04  0.79824359746E+02 0.  0.
        -24    1    1    2    0    0 -0.18624011562E+03 -0.13192859955E+03 -0.30647212359E+03  0.39036857839E+03  0.79824359746E+02 0.  0.
<mgrwt>
<rscale>  0 0.24179012E+03</rscale>
<asrwt>0</asrwt>
<pdfrwt beam="1">  1       22 0.92079416E+00 0.24179012E+03</pdfrwt>
<pdfrwt beam="2">0</pdfrwt>
<totfact> 0.69782591E-05</totfact>
</mgrwt>
</event>
<event>
 4    1  0.8237115E+000  0.2998728E+03  0.7818608E-02  0.1003817E+00
         22   -1    0    0    0    0  0.00000000000E+00  0.00000000000E+00  0.47495773504E+02  0.47495773504E+02  0.00000000000E+00 0.  1.
         22   -1    0    0    0    0 -0.00000000000E+00 -0.00000000000E+00 -0.19578544230E+04  0.19578544230E+04  0.00000000000E+00 0.  1.
         24    1    1    2    0    0  0.20653043675E+03 -0.20222986530E+03 -0.77310920100E+03  0.82922946450E+03  0.79824359746E+02 0.  0.
        -24    1    1    2    0    0 -0.20653043675E+03  0.20222986530E+03 -0.11372494485E+04  0.11761207320E+04  0.79824359746E+02 0.  0.
<mgrwt>
<rscale>  0 0.29987275E+03</rscale>
<asrwt>0</asrwt>
<pdfrwt beam="1">  1       22 0.94990687E+00 0.29987275E+03</pdfrwt>
<pdfrwt beam="2">0</pdfrwt>
<totfact> 0.12644698E-03</totfact>
</mgrwt>
</event>
<event>
 4    1  0.8237115E+000  0.1494717E+03  0.7818608E-02  0.1101737E+00
         22   -1    0    0    0    0  0.00000000000E+00  0.00000000000E+00  0.45843334091E+02  0.45843334091E+02  0.00000000000E+00 0. -1.
         22   -1    0    0    0    0 -0.00000000000E+00 -0.00000000000E+00 -0.11103774806E+04  0.11103774806E+04  0.00000000000E+00 0. -1.
         24    1    1    2    0    0  0.75043416689E+02 -0.10167763664E+03 -0.99226294557E+02  0.17940914726E+03  0.79824359746E+02 0.  0.
        -24    1    1    2    0    0 -0.75043416689E+02  0.10167763664E+03 -0.96530785200E+03  0.97681166748E+03  0.79824359746E+02 0.  0.
<mgrwt>
<rscale>  0 0.14947168E+03</rscale>
<asrwt>0</asrwt>
<pdfrwt beam="1">  1       22 0.91688166E+00 0.14947168E+03</pdfrwt>
<pdfrwt beam="2">0</pdfrwt>
<totfact> 0.51061374E-03</totfact>
</mgrwt>
</event>
<event>
 4    1  0.8237115E+000  0.1944693E+03  0.7818608E-02  0.1062515E+00
         22   -1    0    0    0    0  0.00000000000E+00  0.00000000000E+00  0.25912056468E+02  0.25912056468E+02  0.00000000000E+00 0.  1.
         22   -1    0    0    0    0 -0.00000000000E+00 -0.00000000000E+00 -0.18476332744E+04  0.18476332744E+04  0.00000000000E+00 0.  1.
         24    1    1    2    0    0 -0.15866952176E+03 -0.79185693828E+02 -0.48149840126E+03  0.51928704015E+03  0.79824359746E+02 0.  0.
        -24    1    1    2    0    0  0.15866952176E+03  0.79185693828E+02 -0.13402228167E+04  0.13542582907E+04  0.79824359746E+02 0.  0.
<mgrwt>
<rscale>  0 0.19446933E+03</rscale>
<asrwt>0</asrwt>
<pdfrwt beam="1">  1       22 0.51824928E+00 0.19446933E+03</pdfrwt>
<pdfrwt beam="2">0</pdfrwt>
<totfact> 0.36195441E-03</totfact>
</mgrwt>
</event>
<event>
 4    1  0.8237115E+000  0.3615609E+03  0.7818608E-02  0.9804566E-01
         22   -1    0    0    0    0  0.00000000000E+00  0.00000000000E+00  0.48895405161E+02  0.48895405161E+02  0.00000000000E+00 0. -1.
         22   -1    0    0    0    0 -0.00000000000E+00 -0.00000000000E+00 -0.27220102549E+04  0.27220102549E+04  0.00000000000E+00 0. -1.
         24    1    1    2    0    0 -0.15079555539E+03 -0.31877117914E+03 -0.15213387126E+04  0.15637128161E+04  0.79824359746E+02 0.  0.
        -24    1    1    2    0    0  0.15079555539E+03  0.31877117914E+03 -0.11517761372E+04  0.12071928440E+04  0.79824359746E+02 0.  0.
<mgrwt>
<rscale>  0 0.36156091E+03</rscale>
<asrwt>0</asrwt>
<pdfrwt beam="1">  1       22 0.97789972E+00 0.36156091E+03</pdfrwt>
<pdfrwt beam="2">0</pdfrwt>
<totfact> 0.41159703E-04</totfact>
</mgrwt>
</event>
<event>
 4    1  0.8237115E+000  0.8639896E+02  0.7818608E-02  0.1193748E+00
         22   -1    0    0    0    0  0.00000000000E+00  0.00000000000E+00  0.35487969998E+02  0.35487969998E+02  0.00000000000E+00 0.  1.
         22   -1    0    0    0    0 -0.00000000000E+00 -0.00000000000E+00 -0.13864908512E+04  0.13864908512E+04  0.00000000000E+00 0.  1.
         24    1    1    2    0    0  0.28784292884E+02 -0.16257787359E+02 -0.13303409787E+04  0.13331436154E+04  0.79824359746E+02 0.  0.
        -24    1    1    2    0    0 -0.28784292884E+02  0.16257787359E+02 -0.20661902464E+02  0.88835205797E+02  0.79824359746E+02 0.  0.
<mgrwt>
<rscale>  0 0.86398956E+02</rscale>
<asrwt>0</asrwt>
<pdfrwt beam="1">  1       22 0.70977227E+00 0.86398956E+02</pdfrwt>
<pdfrwt beam="2">0</pdfrwt>
<totfact> 0.43412314E-03</totfact>
</mgrwt>
</event>
<event>
 4    1  0.8237115E+000  0.1794472E+03  0.7818608E-02  0.1074191E+00
         22   -1    0    0    0    0  0.00000000000E+00  0.00000000000E+00  0.34393821720E+02  0.34393821720E+02  0.00000000000E+00 0.  1.
         22   -1    0    0    0    0 -0.00000000000E+00 -0.00000000000E+00 -0.12661749872E+04  0.12661749872E+04  0.00000000000E+00 0.  1.
         24    1    1    2    0    0 -0.13241469461E+03  0.91080791966E+02 -0.28394824687E+03  0.33589864145E+03  0.79824359746E+02 0.  0.
        -24    1    1    2    0    0  0.13241469461E+03 -0.91080791966E+02 -0.94783291865E+03  0.96467016752E+03  0.79824359746E+02 0.  0.
<mgrwt>
<rscale>  0 0.17944718E+03</rscale>
<asrwt>0</asrwt>
<pdfrwt beam="1">  1       22 0.68788932E+00 0.17944718E+03</pdfrwt>
<pdfrwt beam="2">0</pdfrwt>
<totfact> 0.59831682E-03</totfact>
</mgrwt>
</event>
<event>
 4    1  0.8237115E+000  0.8954886E+02  0.7818608E-02  0.1187259E+00
         22   -1    0    0    0    0  0.00000000000E+00  0.00000000000E+00  0.20642958868E+02  0.20642958868E+02  0.00000000000E+00 0. -1.
         22   -1    0    0    0    0 -0.00000000000E+00 -0.00000000000E+00 -0.18634355793E+04  0.18634355793E+04  0.00000000000E+00 0. -1.
         24    1    1    2    0    0 -0.13187810215E+02 -0.38381656191E+02 -0.83280594705E+02  0.12228922983E+03  0.79824359746E+02 0.  0.
        -24    1    1    2    0    0  0.13187810215E+02  0.38381656191E+02 -0.17595120257E+04  0.17617893083E+04  0.79824359746E+02 0.  0.
<mgrwt>
<rscale>  0 0.89548860E+02</rscale>
<asrwt>0</asrwt>
<pdfrwt beam="1">  1       22 0.41289093E+00 0.89548860E+02</pdfrwt>
<pdfrwt beam="2">0</pdfrwt>
<totfact> 0.46569836E-03</totfact>
</mgrwt>
</event>
<event>
 4    1  0.8237115E+000  0.2517117E+03  0.7818608E-02  0.1026731E+00
         22   -1    0    0    0    0  0.00000000000E+00  0.00000000000E+00  0.49130514146E+02  0.49130514146E+02  0.00000000000E+00 0. -1.
         22   -1    0    0    0    0 -0.00000000000E+00 -0.00000000000E+00 -0.15295920907E+04  0.15295920907E+04  0.00000000000E+00 0. -1.
         24    1    1    2    0    0  0.23219431744E+03  0.55431287091E+02 -0.42756120530E+03  0.49615253836E+03  0.79824359746E+02 0.  0.
        -24    1    1    2    0    0 -0.23219431744E+03 -0.55431287091E+02 -0.10529003712E+04  0.10825700664E+04  0.79824359746E+02 0.  0.
<mgrwt>
<rscale>  0 0.25171165E+03</rscale>
<asrwt>0</asrwt>
<pdfrwt beam="1">  1       22 0.98259583E+00 0.25171165E+03</pdfrwt>
<pdfrwt beam="2">0</pdfrwt>
<totfact> 0.21984605E-03</totfact>
</mgrwt>
</event>
<event>
 4    1  0.8237115E+000  0.1176440E+03  0.7818608E-02  0.1140086E+00
         22   -1    0    0    0    0  0.00000000000E+00  0.00000000000E+00  0.42472201338E+02  0.42472201338E+02  0.00000000000E+00 0.  1.
         22   -1    0    0    0    0 -0.00000000000E+00 -0.00000000000E+00 -0.23359886277E+04  0.23359886277E+04  0.00000000000E+00 0.  1.
         24    1    1    2    0    0 -0.29844660734E+02 -0.81101702882E+02 -0.43588710116E+02  0.12545953150E+03  0.79824359746E+02 0.  0.
        -24    1    1    2    0    0  0.29844660734E+02  0.81101702882E+02 -0.22499277162E+04  0.22530012975E+04  0.79824359746E+02 0.  0.
<mgrwt>
<rscale>  0 0.11764403E+03</rscale>
<asrwt>0</asrwt>
<pdfrwt beam="1">  1       22 0.84946986E+00 0.11764403E+03</pdfrwt>
<pdfrwt beam="2">0</pdfrwt>
<totfact> 0.81919453E-04</totfact>
</mgrwt>
</event>
<event>
 4    1  0.8237115E+000  0.1423324E+03  0.7818608E-02  0.1109360E+00
         22   -1    0    0    0    0  0.00000000000E+00  0.00000000000E+00  0.34557665323E+02  0.34557665323E+02  0.00000000000E+00 0.  1.
         22   -1    0    0    0    0 -0.00000000000E+00 -0.00000000000E+00 -0.10429786669E+04  0.10429786669E+04  0.00000000000E+00 0.  1.
         24    1    1    2    0    0  0.10532235922E+03  0.52856237852E+02 -0.14767233210E+03  0.20509906706E+03  0.79824359746E+02 0.  0.
        -24    1    1    2    0    0 -0.10532235922E+03 -0.52856237852E+02 -0.86074866948E+03  0.87243726517E+03  0.79824359746E+02 0.  0.
<mgrwt>
<rscale>  0 0.14233239E+03</rscale>
<asrwt>0</asrwt>
<pdfrwt beam="1">  1       22 0.69113768E+00 0.14233239E+03</pdfrwt>
<pdfrwt beam="2">0</pdfrwt>
<totfact> 0.89504922E-03</totfact>
</mgrwt>
</event>
<event>
 4    1  0.8237115E+000  0.2245462E+03  0.7818608E-02  0.1042262E+00
         22   -1    0    0    0    0  0.00000000000E+00  0.00000000000E+00  0.41975112600E+02  0.41975112600E+02  0.00000000000E+00 0. -1.
         22   -1    0    0    0    0 -0.00000000000E+00 -0.00000000000E+00 -0.30855117111E+04  0.30855117111E+04  0.00000000000E+00 0. -1.
         24    1    1    2    0    0  0.11112681344E+03  0.17804461569E+03 -0.29975211549E+03  0.37452945544E+03  0.79824359746E+02 0.  0.
        -24    1    1    2    0    0 -0.11112681344E+03 -0.17804461569E+03 -0.27437844830E+04  0.27529573682E+04  0.79824359746E+02 0.  0.
<mgrwt>
<rscale>  0 0.22454617E+03</rscale>
<asrwt>0</asrwt>
<pdfrwt beam="1">  1       22 0.83947148E+00 0.22454617E+03</pdfrwt>
<pdfrwt beam="2">0</pdfrwt>
<totfact> 0.30492390E-04</totfact>
</mgrwt>
</event>
<event>
 4    1  0.8237115E+000  0.2257735E+03  0.7818608E-02  0.1041510E+00
         22   -1    0    0    0    0  0.00000000000E+00  0.00000000000E+00  0.41191134020E+02  0.41191134020E+02  0.00000000000E+00 0.  1.
         22   -1    0    0    0    0 -0.00000000000E+00 -0.00000000000E+00 -0.14972905419E+04  0.14972905419E+04  0.00000000000E+00 0.  1.
         24    1    1    2    0    0  0.19817694298E+03  0.72990773656E+02 -0.40762353002E+03  0.46597277217E+03  0.79824359746E+02 0.  0.
        -24    1    1    2    0    0 -0.19817694298E+03 -0.72990773656E+02 -0.10484758778E+04  0.10725089037E+04  0.79824359746E+02 0.  0.
<mgrwt>
<rscale>  0 0.22577352E+03</rscale>
<asrwt>0</asrwt>
<pdfrwt beam="1">  1       22 0.82385957E+00 0.22577352E+03</pdfrwt>
<pdfrwt beam="2">0</pdfrwt>
<totfact> 0.31242458E-03</totfact>
</mgrwt>
</event>
<event>
 4    1  0.8237115E+000  0.2208168E+03  0.7818608E-02  0.1044580E+00
         22   -1    0    0    0    0  0.00000000000E+00  0.00000000000E+00  0.36018355223E+02  0.36018355223E+02  0.00000000000E+00 0. -1.
         22   -1    0    0    0    0 -0.00000000000E+00 -0.00000000000E+00 -0.18644336899E+04  0.18644336899E+04  0.00000000000E+00 0. -1.
         24    1    1    2    0    0 -0.50861243088E+02 -0.19950254308E+03 -0.41689793972E+03  0.47176683997E+03  0.79824359746E+02 0.  0.
        -24    1    1    2    0    0  0.50861243088E+02  0.19950254308E+03 -0.14115173949E+04  0.14286852051E+04  0.79824359746E+02 0.  0.
<mgrwt>
<rscale>  0 0.22081680E+03</rscale>
<asrwt>0</asrwt>
<pdfrwt beam="1">  1       22 0.72039016E+00 0.22081680E+03</pdfrwt>
<pdfrwt beam="2">0</pdfrwt>
<totfact> 0.21632788E-03</totfact>
</mgrwt>
</event>
<event>
 4    1  0.8237115E+000  0.1376909E+03  0.7818608E-02  0.1114585E+00
         22   -1    0    0    0    0  0.00000000000E+00  0.00000000000E+00  0.11766827922E+02  0.11766827922E+02  0.00000000000E+00 0.  1.
         22   -1    0    0    0    0 -0.00000000000E+00 -0.00000000000E+00 -0.17183055233E+04  0.17183055233E+04  0.00000000000E+00 0.  1.
         24    1    1    2    0    0 -0.61350350130E+02  0.93930800383E+02 -0.63730755774E+03  0.65201204919E+03  0.79824359746E+02 0.  0.
        -24    1    1    2    0    0  0.61350350130E+02 -0.93930800383E+02 -0.10692311376E+04  0.10780603020E+04  0.79824359746E+02 0.  0.
<mgrwt>
<rscale>  0 0.13769092E+03</rscale>
<asrwt>0</asrwt>
<pdfrwt beam="1">  1       22 0.23532277E+00 0.13769092E+03</pdfrwt>
<pdfrwt beam="2">0</pdfrwt>
<totfact> 0.13014024E-02</totfact>
</mgrwt>
</event>
<event>
 4    1  0.8237115E+000  0.1498832E+03  0.7818608E-02  0.1101312E+00
         22   -1    0    0    0    0  0.00000000000E+00  0.00000000000E+00  0.29417443002E+02  0.29417443002E+02  0.00000000000E+00 0. -1.
         22   -1    0    0    0    0 -0.00000000000E+00 -0.00000000000E+00 -0.32322367164E+04  0.32322367164E+04  0.00000000000E+00 0. -1.
         24    1    1    2    0    0  0.12680337534E+03 -0.37346442968E+01 -0.17619751677E+03  0.23132344648E+03  0.79824359746E+02 0.  0.
        -24    1    1    2    0    0 -0.12680337534E+03  0.37346442968E+01 -0.30266217566E+04  0.30303307129E+04  0.79824359746E+02 0.  0.
<mgrwt>
<rscale>  0 0.14988319E+03</rscale>
<asrwt>0</asrwt>
<pdfrwt beam="1">  1       22 0.58839189E+00 0.14988319E+03</pdfrwt>
<pdfrwt beam="2">0</pdfrwt>
<totfact> 0.40602170E-04</totfact>
</mgrwt>
</event>
<event>
 4    1  0.8237115E+000  0.1981083E+03  0.7818608E-02  0.1059859E+00
         22   -1    0    0    0    0  0.00000000000E+00  0.00000000000E+00  0.49010043255E+02  0.49010043255E+02  0.00000000000E+00 0.  1.
         22   -1    0    0    0    0 -0.00000000000E+00 -0.00000000000E+00 -0.85674934239E+03  0.85674934239E+03  0.00000000000E+00 0.  1.
         24    1    1    2    0    0 -0.14373921132E+03  0.11051706606E+03 -0.28813065688E+03  0.34966582133E+03  0.79824359746E+02 0.  0.
        -24    1    1    2    0    0  0.14373921132E+03 -0.11051706606E+03 -0.51960864225E+03  0.55609356431E+03  0.79824359746E+02 0.  0.
<mgrwt>
<rscale>  0 0.19810833E+03</rscale>
<asrwt>0</asrwt>
<pdfrwt beam="1">  1       22 0.98020764E+00 0.19810833E+03</pdfrwt>
<pdfrwt beam="2">0</pdfrwt>
<totfact> 0.78522242E-03</totfact>
</mgrwt>
</event>
<event>
 4    1  0.8237115E+000  0.3929131E+03  0.7818608E-02  0.9704244E-01
         22   -1    0    0    0    0  0.00000000000E+00  0.00000000000E+00  0.48536335491E+02  0.48536335491E+02  0.00000000000E+00 0.  1.
         22   -1    0    0    0    0 -0.00000000000E+00 -0.00000000000E+00 -0.31812595297E+04  0.31812595297E+04  0.00000000000E+00 0.  1.
         24    1    1    2    0    0  0.31724841761E+03  0.21762853403E+03 -0.15873228133E+04  0.16352291520E+04  0.79824359746E+02 0.  0.
        -24    1    1    2    0    0 -0.31724841761E+03 -0.21762853403E+03 -0.15454003808E+04  0.15945667132E+04  0.79824359746E+02 0.  0.
<mgrwt>
<rscale>  0 0.39291305E+03</rscale>
<asrwt>0</asrwt>
<pdfrwt beam="1">  1       22 0.97069895E+00 0.39291305E+03</pdfrwt>
<pdfrwt beam="2">0</pdfrwt>
<totfact> 0.21746248E-04</totfact>
</mgrwt>
</event>
<event>
 4    1  0.8237115E+000  0.1202691E+03  0.7818608E-02  0.1136438E+00
         22   -1    0    0    0    0  0.00000000000E+00  0.00000000000E+00  0.41815164466E+02  0.41815164466E+02  0.00000000000E+00 0. -1.
         22   -1    0    0    0    0 -0.00000000000E+00 -0.00000000000E+00 -0.64306207907E+03  0.64306207907E+03  0.00000000000E+00 0. -1.
         24    1    1    2    0    0 -0.75565507526E+01 -0.89641699011E+02 -0.53339989984E+03  0.54679074354E+03  0.79824359746E+02 0.  0.
        -24    1    1    2    0    0  0.75565507526E+01  0.89641699011E+02 -0.67847014768E+02  0.13808650000E+03  0.79824359746E+02 0.  0.
<mgrwt>
<rscale>  0 0.12026913E+03</rscale>
<asrwt>0</asrwt>
<pdfrwt beam="1">  1       22 0.83630292E+00 0.12026913E+03</pdfrwt>
<pdfrwt beam="2">0</pdfrwt>
<totfact> 0.17295505E-02</totfact>
</mgrwt>
</event>
<event>
 4    1  0.8237115E+000  0.2916075E+03  0.7818608E-02  0.1007405E+00
         22   -1    0    0    0    0  0.00000000000E+00  0.00000000000E+00  0.28518554294E+02  0.28518554294E+02  0.00000000000E+00 0.  1.
         22   -1    0    0    0    0 -0.00000000000E+00 -0.00000000000E+00 -0.38060700962E+04  0.38060700962E+04  0.00000000000E+00 0.  1.
         24    1    1    2    0    0 -0.13790013609E+03 -0.24422648578E+03 -0.27810546659E+04  0.27963011295E+04  0.79824359746E+02 0.  0.
        -24    1    1    2    0    0  0.13790013609E+03  0.24422648578E+03 -0.99649687604E+03  0.10382875210E+04  0.79824359746E+02 0.  0.
<mgrwt>
<rscale>  0 0.29160753E+03</rscale>
<asrwt>0</asrwt>
<pdfrwt beam="1">  1       22 0.57046971E+00 0.29160753E+03</pdfrwt>
<pdfrwt beam="2">0</pdfrwt>
<totfact> 0.17785440E-04</totfact>
</mgrwt>
</event>
<event>
 4    1  0.8237115E+000  0.2193868E+03  0.7818608E-02  0.1045482E+00
         22   -1    0    0    0    0  0.00000000000E+00  0.00000000000E+00  0.31178588160E+02  0.31178588160E+02  0.00000000000E+00 0. -1.
         22   -1    0    0    0    0 -0.00000000000E+00 -0.00000000000E+00 -0.15548188897E+04  0.15548188897E+04  0.00000000000E+00 0. -1.
         24    1    1    2    0    0 -0.20109110952E+03  0.36345680625E+02 -0.82886224701E+03  0.85740491937E+03  0.79824359746E+02 0.  0.
        -24    1    1    2    0    0  0.20109110952E+03 -0.36345680625E+02 -0.69477805454E+03  0.72859255850E+03  0.79824359746E+02 0.  0.
<mgrwt>
<rscale>  0 0.21938681E+03</rscale>
<asrwt>0</asrwt>
<pdfrwt beam="1">  1       22 0.62357898E+00 0.21938681E+03</pdfrwt>
<pdfrwt beam="2">0</pdfrwt>
<totfact> 0.43249513E-03</totfact>
</mgrwt>
</event>
<event>
 4    1  0.8237115E+000  0.1783894E+03  0.7818608E-02  0.1075060E+00
         22   -1    0    0    0    0  0.00000000000E+00  0.00000000000E+00  0.27613681577E+02  0.27613681577E+02  0.00000000000E+00 0.  1.
         22   -1    0    0    0    0 -0.00000000000E+00 -0.00000000000E+00 -0.28007913666E+04  0.28007913666E+04  0.00000000000E+00 0.  1.
         24    1    1    2    0    0  0.14993094304E+03 -0.54511904859E+02 -0.24715090086E+04  0.24779385674E+04  0.79824359746E+02 0.  0.
        -24    1    1    2    0    0 -0.14993094304E+03  0.54511904859E+02 -0.30166867639E+03  0.35046648082E+03  0.79824359746E+02 0.  0.
<mgrwt>
<rscale>  0 0.17838936E+03</rscale>
<asrwt>0</asrwt>
<pdfrwt beam="1">  1       22 0.55226893E+00 0.17838936E+03</pdfrwt>
<pdfrwt beam="2">0</pdfrwt>
<totfact> 0.85126593E-04</totfact>
</mgrwt>
</event>
<event>
 4    1  0.8237115E+000  0.2038086E+03  0.7818608E-02  0.1055821E+00
         22   -1    0    0    0    0  0.00000000000E+00  0.00000000000E+00  0.46128387198E+02  0.46128387198E+02  0.00000000000E+00 0. -1.
         22   -1    0    0    0    0 -0.00000000000E+00 -0.00000000000E+00 -0.13638451753E+04  0.13638451753E+04  0.00000000000E+00 0. -1.
         24    1    1    2    0    0 -0.18683968008E+03 -0.16030090869E+02 -0.10697785166E+04  0.10890197578E+04  0.79824359746E+02 0.  0.
        -24    1    1    2    0    0  0.18683968008E+03  0.16030090869E+02 -0.24793827145E+03  0.32095380466E+03  0.79824359746E+02 0.  0.
<mgrwt>
<rscale>  0 0.20380863E+03</rscale>
<asrwt>0</asrwt>
<pdfrwt beam="1">  1       22 0.92258676E+00 0.20380863E+03</pdfrwt>
<pdfrwt beam="2">0</pdfrwt>
<totfact> 0.32572163E-03</totfact>
</mgrwt>
</event>
<event>
 4    1  0.8237115E+000  0.2978275E+03  0.7818608E-02  0.1004693E+00
         22   -1    0    0    0    0  0.00000000000E+00  0.00000000000E+00  0.43698207722E+02  0.43698207722E+02  0.00000000000E+00 0. -1.
         22   -1    0    0    0    0 -0.00000000000E+00 -0.00000000000E+00 -0.21263983628E+04  0.21263983628E+04  0.00000000000E+00 0. -1.
         24    1    1    2    0    0 -0.25516077215E+03 -0.13123368058E+03 -0.81015552992E+03  0.86316464804E+03  0.79824359746E+02 0.  0.
        -24    1    1    2    0    0  0.25516077215E+03  0.13123368058E+03 -0.12725446251E+04  0.13069319225E+04  0.79824359746E+02 0.  0.
<mgrwt>
<rscale>  0 0.29782751E+03</rscale>
<asrwt>0</asrwt>
<pdfrwt beam="1">  1       22 0.87399892E+00 0.29782751E+03</pdfrwt>
<pdfrwt beam="2">0</pdfrwt>
<totfact> 0.11381428E-03</totfact>
</mgrwt>
</event>
<event>
 4    1  0.8237115E+000  0.3043727E+03  0.7818608E-02  0.1001915E+00
         22   -1    0    0    0    0  0.00000000000E+00  0.00000000000E+00  0.48670640463E+02  0.48670640463E+02  0.00000000000E+00 0.  1.
         22   -1    0    0    0    0 -0.00000000000E+00 -0.00000000000E+00 -0.23228309091E+04  0.23228309091E+04  0.00000000000E+00 0.  1.
         24    1    1    2    0    0 -0.26412594796E+03 -0.12848471322E+03 -0.63325226842E+03  0.70260316095E+03  0.79824359746E+02 0.  0.
        -24    1    1    2    0    0  0.26412594796E+03  0.12848471322E+03 -0.16409080002E+04  0.16688983886E+04  0.79824359746E+02 0.  0.
<mgrwt>
<rscale>  0 0.30437274E+03</rscale>
<asrwt>0</asrwt>
<pdfrwt beam="1">  1       22 0.97339133E+00 0.30437274E+03</pdfrwt>
<pdfrwt beam="2">0</pdfrwt>
<totfact> 0.71664531E-04</totfact>
</mgrwt>
</event>
<event>
 4    1  0.8237115E+000  0.2076907E+03  0.7818608E-02  0.1053153E+00
         22   -1    0    0    0    0  0.00000000000E+00  0.00000000000E+00  0.47527303151E+02  0.47527303151E+02  0.00000000000E+00 0. -1.
         22   -1    0    0    0    0 -0.00000000000E+00 -0.00000000000E+00 -0.15435864311E+04  0.15435864311E+04  0.00000000000E+00 0. -1.
         24    1    1    2    0    0  0.13091318568E+03  0.14009004955E+03 -0.23736900100E+03  0.31540363855E+03  0.79824359746E+02 0.  0.
        -24    1    1    2    0    0 -0.13091318568E+03 -0.14009004955E+03 -0.12586901269E+04  0.12757100957E+04  0.79824359746E+02 0.  0.
<mgrwt>
<rscale>  0 0.20769067E+03</rscale>
<asrwt>0</asrwt>
<pdfrwt beam="1">  1       22 0.95052175E+00 0.20769067E+03</pdfrwt>
<pdfrwt beam="2">0</pdfrwt>
<totfact> 0.22931880E-03</totfact>
</mgrwt>
</event>
<event>
 4    1  0.8237115E+000  0.1707170E+03  0.7818608E-02  0.1081567E+00
         22   -1    0    0    0    0  0.00000000000E+00  0.00000000000E+00  0.28628296063E+02  0.28628296063E+02  0.00000000000E+00 0.  1.
         22   -1    0    0    0    0 -0.00000000000E+00 -0.00000000000E+00 -0.16599127054E+04  0.16599127054E+04  0.00000000000E+00 0.  1.
         24    1    1    2    0    0 -0.14541972531E+03 -0.40316906338E+02 -0.29063044626E+03  0.33706132105E+03  0.79824359746E+02 0.  0.
        -24    1    1    2    0    0  0.14541972531E+03  0.40316906338E+02 -0.13406539630E+04  0.13514796804E+04  0.79824359746E+02 0.  0.
<mgrwt>
<rscale>  0 0.17071695E+03</rscale>
<asrwt>0</asrwt>
<pdfrwt beam="1">  1       22 0.57257702E+00 0.17071695E+03</pdfrwt>
<pdfrwt beam="2">0</pdfrwt>
<totfact> 0.40909486E-03</totfact>
</mgrwt>
</event>
<event>
 4    1  0.8237115E+000  0.1489308E+03  0.7818608E-02  0.1102298E+00
         22   -1    0    0    0    0  0.00000000000E+00  0.00000000000E+00  0.18971345573E+02  0.18971345573E+02  0.00000000000E+00 0. -1.
         22   -1    0    0    0    0 -0.00000000000E+00 -0.00000000000E+00 -0.15396888798E+04  0.15396888798E+04  0.00000000000E+00 0. -1.
         24    1    1    2    0    0 -0.10584064861E+03  0.67869180621E+02 -0.37804461851E+03  0.40632269266E+03  0.79824359746E+02 0.  0.
        -24    1    1    2    0    0  0.10584064861E+03 -0.67869180621E+02 -0.11426729157E+04  0.11523375327E+04  0.79824359746E+02 0.  0.
<mgrwt>
<rscale>  0 0.14893085E+03</rscale>
<asrwt>0</asrwt>
<pdfrwt beam="1">  1       22 0.37944388E+00 0.14893085E+03</pdfrwt>
<pdfrwt beam="2">0</pdfrwt>
<totfact> 0.90046618E-03</totfact>
</mgrwt>
</event>
<event>
 4    1  0.8237115E+000  0.2516809E+03  0.7818608E-02  0.1026747E+00
         22   -1    0    0    0    0  0.00000000000E+00  0.00000000000E+00  0.31519450944E+02  0.31519450944E+02  0.00000000000E+00 0. -1.
         22   -1    0    0    0    0 -0.00000000000E+00 -0.00000000000E+00 -0.21514637378E+04  0.21514637378E+04  0.00000000000E+00 0. -1.
         24    1    1    2    0    0 -0.17490526956E+02 -0.23804500196E+03 -0.77974993076E+03  0.81936147360E+03  0.79824359746E+02 0.  0.
        -24    1    1    2    0    0  0.17490526956E+02  0.23804500196E+03 -0.13401943561E+04  0.13636217152E+04  0.79824359746E+02 0.  0.
<mgrwt>
<rscale>  0 0.25168089E+03</rscale>
<asrwt>0</asrwt>
<pdfrwt beam="1">  1       22 0.63036496E+00 0.25168089E+03</pdfrwt>
<pdfrwt beam="2">0</pdfrwt>
<totfact> 0.17728048E-03</totfact>
</mgrwt>
</event>
<event>
 4    1  0.8237115E+000  0.2732121E+03  0.7818608E-02  0.1015872E+00
         22   -1    0    0    0    0  0.00000000000E+00  0.00000000000E+00  0.22347773391E+02  0.22347773391E+02  0.00000000000E+00 0. -1.
         22   -1    0    0    0    0 -0.00000000000E+00 -0.00000000000E+00 -0.34594120823E+04  0.34594120823E+04  0.00000000000E+00 0. -1.
         24    1    1    2    0    0  0.12560610650E+03 -0.22912011588E+03 -0.20417714791E+04  0.20599698111E+04  0.79824359746E+02 0.  0.
        -24    1    1    2    0    0 -0.12560610650E+03  0.22912011588E+03 -0.13952928298E+04  0.14217900446E+04  0.79824359746E+02 0.  0.
<mgrwt>
<rscale>  0 0.27321210E+03</rscale>
<asrwt>0</asrwt>
<pdfrwt beam="1">  1       22 0.44687487E+00 0.27321210E+03</pdfrwt>
<pdfrwt beam="2">0</pdfrwt>
<totfact> 0.45168822E-04</totfact>
</mgrwt>
</event>
<event>
 4    1  0.8237115E+000  0.3267121E+03  0.7818608E-02  0.9929732E-01
         22   -1    0    0    0    0  0.00000000000E+00  0.00000000000E+00  0.48040319979E+02  0.48040319979E+02  0.00000000000E+00 0.  1.
         22   -1    0    0    0    0 -0.00000000000E+00 -0.00000000000E+00 -0.33841430645E+04  0.33841430645E+04  0.00000000000E+00 0.  1.
         24    1    1    2    0    0  0.20486111057E+03 -0.24166256602E+03 -0.66236036444E+03  0.73855402729E+03  0.79824359746E+02 0.  0.
        -24    1    1    2    0    0 -0.20486111057E+03  0.24166256602E+03 -0.26737423800E+04  0.26936293572E+04  0.79824359746E+02 0.  0.
<mgrwt>
<rscale>  0 0.32671210E+03</rscale>
<asrwt>0</asrwt>
<pdfrwt beam="1">  1       22 0.96090159E+00 0.32671210E+03</pdfrwt>
<pdfrwt beam="2">0</pdfrwt>
<totfact> 0.16074317E-04</totfact>
</mgrwt>
</event>
<event>
 4    1  0.8237115E+000  0.2815684E+03  0.7818608E-02  0.1011939E+00
         22   -1    0    0    0    0  0.00000000000E+00  0.00000000000E+00  0.31509001899E+02  0.31509001899E+02  0.00000000000E+00 0.  1.
         22   -1    0    0    0    0 -0.00000000000E+00 -0.00000000000E+00 -0.27539639175E+04  0.27539639175E+04  0.00000000000E+00 0.  1.
         24    1    1    2    0    0 -0.26055522474E+03  0.70850461737E+02 -0.95194152581E+03  0.99271013395E+03  0.79824359746E+02 0.  0.
        -24    1    1    2    0    0  0.26055522474E+03 -0.70850461737E+02 -0.17705133898E+04  0.17927627855E+04  0.79824359746E+02 0.  0.
<mgrwt>
<rscale>  0 0.28156836E+03</rscale>
<asrwt>0</asrwt>
<pdfrwt beam="1">  1       22 0.63013870E+00 0.28156836E+03</pdfrwt>
<pdfrwt beam="2">0</pdfrwt>
<totfact> 0.77132688E-04</totfact>
</mgrwt>
</event>
<event>
 4    1  0.8237115E+000  0.1769981E+03  0.7818608E-02  0.1076213E+00
         22   -1    0    0    0    0  0.00000000000E+00  0.00000000000E+00  0.17189036605E+02  0.17189036605E+02  0.00000000000E+00 0.  1.
         22   -1    0    0    0    0 -0.00000000000E+00 -0.00000000000E+00 -0.37606437859E+04  0.37606437859E+04  0.00000000000E+00 0.  1.
         24    1    1    2    0    0  0.15306601050E+03  0.39079203395E+02 -0.32277476519E+04  0.32325969777E+04  0.79824359746E+02 0.  0.
        -24    1    1    2    0    0 -0.15306601050E+03 -0.39079203395E+02 -0.51570709737E+03  0.54523584474E+03  0.79824359746E+02 0.  0.
<mgrwt>
<rscale>  0 0.17699807E+03</rscale>
<asrwt>0</asrwt>
<pdfrwt beam="1">  1       22 0.34382449E+00 0.17699807E+03</pdfrwt>
<pdfrwt beam="2">0</pdfrwt>
<totfact> 0.38884262E-04</totfact>
</mgrwt>
</event>
<event>
 4    1  0.8237115E+000  0.3006728E+03  0.7818608E-02  0.1003476E+00
         22   -1    0    0    0    0  0.00000000000E+00  0.00000000000E+00  0.46718692699E+02  0.46718692699E+02  0.00000000000E+00 0.  1.
         22   -1    0    0    0    0 -0.00000000000E+00 -0.00000000000E+00 -0.19640313901E+04  0.19640313901E+04  0.00000000000E+00 0.  1.
         24    1    1    2    0    0  0.90615626861E+02  0.27535618355E+03 -0.83658034471E+03  0.88897177751E+03  0.79824359746E+02 0.  0.
        -24    1    1    2    0    0 -0.90615626861E+02 -0.27535618355E+03 -0.10807323527E+04  0.11217783053E+04  0.79824359746E+02 0.  0.
<mgrwt>
<rscale>  0 0.30067283E+03</rscale>
<asrwt>0</asrwt>
<pdfrwt beam="1">  1       22 0.93434159E+00 0.30067283E+03</pdfrwt>
<pdfrwt beam="2">0</pdfrwt>
<totfact> 0.12913728E-03</totfact>
</mgrwt>
</event>
<event>
 4    1  0.8237115E+000  0.1529272E+03  0.7818608E-02  0.1098214E+00
         22   -1    0    0    0    0  0.00000000000E+00  0.00000000000E+00  0.49521974747E+02  0.49521974747E+02  0.00000000000E+00 0.  1.
         22   -1    0    0    0    0 -0.00000000000E+00 -0.00000000000E+00 -0.73660045873E+03  0.73660045873E+03  0.00000000000E+00 0.  1.
         24    1    1    2    0    0 -0.32931525566E+02 -0.12621530598E+03 -0.57900882887E+03  0.59886387532E+03  0.79824359746E+02 0.  0.
        -24    1    1    2    0    0  0.32931525566E+02  0.12621530598E+03 -0.10806965511E+03  0.18725855816E+03  0.79824359746E+02 0.  0.
<mgrwt>
<rscale>  0 0.15292716E+03</rscale>
<asrwt>0</asrwt>
<pdfrwt beam="1">  1       22 0.99042765E+00 0.15292716E+03</pdfrwt>
<pdfrwt beam="2">0</pdfrwt>
<totfact> 0.98590686E-03</totfact>
</mgrwt>
</event>
<event>
 4    1  0.8237115E+000  0.1932176E+03  0.7818608E-02  0.1063443E+00
         22   -1    0    0    0    0  0.00000000000E+00  0.00000000000E+00  0.35483579332E+02  0.35483579332E+02  0.00000000000E+00 0.  1.
         22   -1    0    0    0    0 -0.00000000000E+00 -0.00000000000E+00 -0.17414451396E+04  0.17414451396E+04  0.00000000000E+00 0.  1.
         24    1    1    2    0    0 -0.16941137481E+03 -0.47549016742E+02 -0.29400039490E+03  0.35180858932E+03  0.79824359746E+02 0.  0.
        -24    1    1    2    0    0  0.16941137481E+03  0.47549016742E+02 -0.14119611653E+04  0.14251201296E+04  0.79824359746E+02 0.  0.
<mgrwt>
<rscale>  0 0.19321763E+03</rscale>
<asrwt>0</asrwt>
<pdfrwt beam="1">  1       22 0.70964911E+00 0.19321763E+03</pdfrwt>
<pdfrwt beam="2">0</pdfrwt>
<totfact> 0.26297724E-03</totfact>
</mgrwt>
</event>
<event>
 4    1  0.8237115E+000  0.2711225E+03  0.7818608E-02  0.1016879E+00
         22   -1    0    0    0    0  0.00000000000E+00  0.00000000000E+00  0.43306539237E+02  0.43306539237E+02  0.00000000000E+00 0.  1.
         22   -1    0    0    0    0 -0.00000000000E+00 -0.00000000000E+00 -0.17111108059E+04  0.17111108059E+04  0.00000000000E+00 0.  1.
         24    1    1    2    0    0 -0.16058708927E+03 -0.20334025112E+03 -0.75530536844E+03  0.80249211770E+03  0.79824359746E+02 0.  0.
        -24    1    1    2    0    0  0.16058708927E+03  0.20334025112E+03 -0.91249889824E+03  0.95192522745E+03  0.79824359746E+02 0.  0.
<mgrwt>
<rscale>  0 0.27112248E+03</rscale>
<asrwt>0</asrwt>
<pdfrwt beam="1">  1       22 0.86611342E+00 0.27112248E+03</pdfrwt>
<pdfrwt beam="2">0</pdfrwt>
<totfact> 0.20992045E-03</totfact>
</mgrwt>
</event>
<event>
 4    1  0.8237115E+000  0.1337597E+03  0.7818608E-02  0.1119192E+00
         22   -1    0    0    0    0  0.00000000000E+00  0.00000000000E+00  0.46407320805E+02  0.46407320805E+02  0.00000000000E+00 0.  1.
         22   -1    0    0    0    0 -0.00000000000E+00 -0.00000000000E+00 -0.80457124266E+03  0.80457124266E+03  0.00000000000E+00 0.  1.
         24    1    1    2    0    0 -0.95210503895E+02  0.49544880218E+02 -0.72015790222E+02  0.15191424442E+03  0.79824359746E+02 0.  0.
        -24    1    1    2    0    0  0.95210503895E+02 -0.49544880218E+02 -0.68614813164E+03  0.69906431905E+03  0.79824359746E+02 0.  0.
<mgrwt>
<rscale>  0 0.13375972E+03</rscale>
<asrwt>0</asrwt>
<pdfrwt beam="1">  1       22 0.92815713E+00 0.13375972E+03</pdfrwt>
<pdfrwt beam="2">0</pdfrwt>
<totfact> 0.96633530E-03</totfact>
</mgrwt>
</event>
<event>
 4    1  0.8237115E+000  0.1302112E+03  0.7818608E-02  0.1123502E+00
         22   -1    0    0    0    0  0.00000000000E+00  0.00000000000E+00  0.85027985542E+01  0.85027985542E+01  0.00000000000E+00 0. -1.
         22   -1    0    0    0    0 -0.00000000000E+00 -0.00000000000E+00 -0.29374901298E+04  0.29374901298E+04  0.00000000000E+00 0. -1.
         24    1    1    2    0    0 -0.54564436336E+02  0.87211011049E+02 -0.22992730623E+04  0.23029571385E+04  0.79824359746E+02 0.  0.
        -24    1    1    2    0    0  0.54564436336E+02 -0.87211011049E+02 -0.62971426894E+03  0.64303578988E+03  0.79824359746E+02 0.  0.
<mgrwt>
<rscale>  0 0.13021124E+03</rscale>
<asrwt>0</asrwt>
<pdfrwt beam="1">  1       22 0.17004119E+00 0.13021124E+03</pdfrwt>
<pdfrwt beam="2">0</pdfrwt>
<totfact> 0.34657157E-03</totfact>
</mgrwt>
</event>
<event>
 4    1  0.8237115E+000  0.2664648E+03  0.7818608E-02  0.1019160E+00
         22   -1    0    0    0    0  0.00000000000E+00  0.00000000000E+00  0.47049419777E+02  0.47049419777E+02  0.00000000000E+00 0.  1.
         22   -1    0    0    0    0 -0.00000000000E+00 -0.00000000000E+00 -0.18290175849E+04  0.18290175849E+04  0.00000000000E+00 0.  1.
         24    1    1    2    0    0  0.25257091461E+03  0.28974000453E+02 -0.12832775068E+04  0.13106504673E+04  0.79824359746E+02 0.  0.
        -24    1    1    2    0    0 -0.25257091461E+03 -0.28974000453E+02 -0.49869065831E+03  0.56541653735E+03  0.79824359746E+02 0.  0.
<mgrwt>
<rscale>  0 0.26646480E+03</rscale>
<asrwt>0</asrwt>
<pdfrwt beam="1">  1       22 0.94098668E+00 0.26646480E+03</pdfrwt>
<pdfrwt beam="2">0</pdfrwt>
<totfact> 0.15380869E-03</totfact>
</mgrwt>
</event>
<event>
 4    1  0.8237115E+000  0.2877987E+03  0.7818608E-02  0.1009101E+00
         22   -1    0    0    0    0  0.00000000000E+00  0.00000000000E+00  0.38492404952E+02  0.38492404952E+02  0.00000000000E+00 0.  1.
         22   -1    0    0    0    0 -0.00000000000E+00 -0.00000000000E+00 -0.22281936961E+04  0.22281936961E+04  0.00000000000E+00 0.  1.
         24    1    1    2    0    0  0.23919653536E+03  0.13871260212E+03 -0.13046979243E+04  0.13360631612E+04  0.79824359746E+02 0.  0.
        -24    1    1    2    0    0 -0.23919653536E+03 -0.13871260212E+03 -0.88500336683E+03  0.93062293987E+03  0.79824359746E+02 0.  0.
<mgrwt>
<rscale>  0 0.28779871E+03</rscale>
<asrwt>0</asrwt>
<pdfrwt beam="1">  1       22 0.76984288E+00 0.28779871E+03</pdfrwt>
<pdfrwt beam="2">0</pdfrwt>
<totfact> 0.11890378E-03</totfact>
</mgrwt>
</event>
<event>
 4    1  0.8237115E+000  0.2928459E+03  0.7818608E-02  0.1006859E+00
         22   -1    0    0    0    0  0.00000000000E+00  0.00000000000E+00  0.48547684639E+02  0.48547684639E+02  0.00000000000E+00 0. -1.
         22   -1    0    0    0    0 -0.00000000000E+00 -0.00000000000E+00 -0.38256368012E+04  0.38256368012E+04  0.00000000000E+00 0. -1.
         24    1    1    2    0    0  0.23958423093E+03  0.14827735529E+03 -0.33097037406E+04  0.33226341292E+04  0.79824359746E+02 0.  0.
        -24    1    1    2    0    0 -0.23958423093E+03 -0.14827735529E+03 -0.46738537600E+03  0.55155035664E+03  0.79824359746E+02 0.  0.
<mgrwt>
<rscale>  0 0.29284587E+03</rscale>
<asrwt>0</asrwt>
<pdfrwt beam="1">  1       22 0.97090685E+00 0.29284587E+03</pdfrwt>
<pdfrwt beam="2">0</pdfrwt>
<totfact> 0.75156604E-05</totfact>
</mgrwt>
</event>
<event>
 4    1  0.8237115E+000  0.3006047E+03  0.7818608E-02  0.1003505E+00
         22   -1    0    0    0    0  0.00000000000E+00  0.00000000000E+00  0.47704211842E+02  0.47704211842E+02  0.00000000000E+00 0. -1.
         22   -1    0    0    0    0 -0.00000000000E+00 -0.00000000000E+00 -0.58392470300E+04  0.58392470300E+04  0.00000000000E+00 0. -1.
         24    1    1    2    0    0  0.17947234931E+02  0.28925617765E+03 -0.53151619417E+04  0.53236556646E+04  0.79824359746E+02 0.  0.
        -24    1    1    2    0    0 -0.17947234931E+02 -0.28925617765E+03 -0.47638087642E+03  0.56329557728E+03  0.79824359746E+02 0.  0.
<mgrwt>
<rscale>  0 0.30060467E+03</rscale>
<asrwt>0</asrwt>
<pdfrwt beam="1">  1       22 0.95416630E+00 0.30060467E+03</pdfrwt>
<pdfrwt beam="2">0</pdfrwt>
<totfact> 0.45429510E-07</totfact>
</mgrwt>
</event>
<event>
 4    1  0.8237115E+000  0.8376607E+02  0.7818608E-02  0.1199414E+00
         22   -1    0    0    0    0  0.00000000000E+00  0.00000000000E+00  0.44595924634E+02  0.44595924634E+02  0.00000000000E+00 0.  1.
         22   -1    0    0    0    0 -0.00000000000E+00 -0.00000000000E+00 -0.18859708249E+04  0.18859708249E+04  0.00000000000E+00 0.  1.
         24    1    1    2    0    0  0.25121182621E+02  0.37083394153E+01  0.34538509111E+01  0.83837241680E+02  0.79824359746E+02 0.  0.
        -24    1    1    2    0    0 -0.25121182621E+02 -0.37083394153E+01 -0.18448287512E+04  0.18467295078E+04  0.79824359746E+02 0.  0.
<mgrwt>
<rscale>  0 0.83766067E+02</rscale>
<asrwt>0</asrwt>
<pdfrwt beam="1">  1       22 0.89194029E+00 0.83766067E+02</pdfrwt>
<pdfrwt beam="2">0</pdfrwt>
<totfact> 0.13956273E-03</totfact>
</mgrwt>
</event>
<event>
 4    1  0.8237115E+000  0.1384246E+03  0.7818608E-02  0.1113744E+00
         22   -1    0    0    0    0  0.00000000000E+00  0.00000000000E+00  0.34796811267E+02  0.34796811267E+02  0.00000000000E+00 0. -1.
         22   -1    0    0    0    0 -0.00000000000E+00 -0.00000000000E+00 -0.10040478295E+04  0.10040478295E+04  0.00000000000E+00 0. -1.
         24    1    1    2    0    0  0.55215118733E+01  0.11295554223E+03 -0.13558473562E+03  0.19376426543E+03  0.79824359746E+02 0.  0.
        -24    1    1    2    0    0 -0.55215118733E+01 -0.11295554223E+03 -0.83366628261E+03  0.84508037534E+03  0.79824359746E+02 0.  0.
<mgrwt>
<rscale>  0 0.13842460E+03</rscale>
<asrwt>0</asrwt>
<pdfrwt beam="1">  1       22 0.69591377E+00 0.13842460E+03</pdfrwt>
<pdfrwt beam="2">0</pdfrwt>
<totfact> 0.95808987E-03</totfact>
</mgrwt>
</event>
<event>
 4    1  0.8237115E+000  0.1509369E+03  0.7818608E-02  0.1100230E+00
         22   -1    0    0    0    0  0.00000000000E+00  0.00000000000E+00  0.12958597103E+02  0.12958597103E+02  0.00000000000E+00 0.  1.
         22   -1    0    0    0    0 -0.00000000000E+00 -0.00000000000E+00 -0.17596302298E+04  0.17596302298E+04  0.00000000000E+00 0.  1.
         24    1    1    2    0    0  0.12452085990E+03  0.30075939090E+02 -0.89984811019E+03  0.91241906846E+03  0.79824359746E+02 0.  0.
        -24    1    1    2    0    0 -0.12452085990E+03 -0.30075939090E+02 -0.84682352250E+03  0.86016975843E+03  0.79824359746E+02 0.  0.
<mgrwt>
<rscale>  0 0.15093686E+03</rscale>
<asrwt>0</asrwt>
<pdfrwt beam="1">  1       22 0.25915333E+00 0.15093686E+03</pdfrwt>
<pdfrwt beam="2">0</pdfrwt>
<totfact> 0.10834888E-02</totfact>
</mgrwt>
</event>
<event>
 4    1  0.8237115E+000  0.2602002E+03  0.7818608E-02  0.1022308E+00
         22   -1    0    0    0    0  0.00000000000E+00  0.00000000000E+00  0.33967946896E+02  0.33967946896E+02  0.00000000000E+00 0.  1.
         22   -1    0    0    0    0 -0.00000000000E+00 -0.00000000000E+00 -0.36678054974E+04  0.36678054974E+04  0.00000000000E+00 0.  1.
         24    1    1    2    0    0 -0.23855599247E+03  0.66507424192E+02 -0.30675692196E+04  0.30785849094E+04  0.79824359746E+02 0.  0.
        -24    1    1    2    0    0  0.23855599247E+03 -0.66507424192E+02 -0.56626833090E+03  0.62318853488E+03  0.79824359746E+02 0.  0.
<mgrwt>
<rscale>  0 0.26020017E+03</rscale>
<asrwt>0</asrwt>
<pdfrwt beam="1">  1       22 0.67939621E+00 0.26020017E+03</pdfrwt>
<pdfrwt beam="2">0</pdfrwt>
<totfact> 0.17079363E-04</totfact>
</mgrwt>
</event>
<event>
 4    1  0.8237115E+000  0.2831023E+03  0.7818608E-02  0.1011233E+00
         22   -1    0    0    0    0  0.00000000000E+00  0.00000000000E+00  0.31235419035E+02  0.31235419035E+02  0.00000000000E+00 0. -1.
         22   -1    0    0    0    0 -0.00000000000E+00 -0.00000000000E+00 -0.30627173030E+04  0.30627173030E+04  0.00000000000E+00 0. -1.
         24    1    1    2    0    0 -0.27364226368E+02  0.27023353894E+03 -0.89268145510E+03  0.93649723713E+03  0.79824359746E+02 0.  0.
        -24    1    1    2    0    0  0.27364226368E+02 -0.27023353894E+03 -0.21388004289E+04  0.21574554849E+04  0.79824359746E+02 0.  0.
<mgrwt>
<rscale>  0 0.28310227E+03</rscale>
<asrwt>0</asrwt>
<pdfrwt beam="1">  1       22 0.62475633E+00 0.28310227E+03</pdfrwt>
<pdfrwt beam="2">0</pdfrwt>
<totfact> 0.50182848E-04</totfact>
</mgrwt>
</event>
<event>
 4    1  0.8237115E+000  0.2053825E+03  0.7818608E-02  0.1054731E+00
         22   -1    0    0    0    0  0.00000000000E+00  0.00000000000E+00  0.26699888195E+02  0.26699888195E+02  0.00000000000E+00 0. -1.
         22   -1    0    0    0    0 -0.00000000000E+00 -0.00000000000E+00 -0.52640354688E+04  0.52640354688E+04  0.00000000000E+00 0. -1.
         24    1    1    2    0    0 -0.34457013147E+02 -0.18607189568E+03 -0.48317475157E+04  0.48361106295E+04  0.79824359746E+02 0.  0.
        -24    1    1    2    0    0  0.34457013147E+02  0.18607189568E+03 -0.40558806488E+03  0.45462472755E+03  0.79824359746E+02 0.  0.
<mgrwt>
<rscale>  0 0.20538248E+03</rscale>
<asrwt>0</asrwt>
<pdfrwt beam="1">  1       22 0.53398045E+00 0.20538248E+03</pdfrwt>
<pdfrwt beam="2">0</pdfrwt>
<totfact> 0.76302137E-06</totfact>
</mgrwt>
</event>
<event>
 4    1  0.8237115E+000  0.2359236E+03  0.7818608E-02  0.1035482E+00
         22   -1    0    0    0    0  0.00000000000E+00  0.00000000000E+00  0.34563580535E+02  0.34563580535E+02  0.00000000000E+00 0. -1.
         22   -1    0    0    0    0 -0.00000000000E+00 -0.00000000000E+00 -0.21498577475E+04  0.21498577475E+04  0.00000000000E+00 0. -1.
         24    1    1    2    0    0 -0.55066371103E+02 -0.21507139781E+03 -0.51051166652E+03  0.56238963490E+03  0.79824359746E+02 0.  0.
        -24    1    1    2    0    0  0.55066371103E+02  0.21507139781E+03 -0.16047825004E+04  0.16220316931E+04  0.79824359746E+02 0.  0.
<mgrwt>
<rscale>  0 0.23592359E+03</rscale>
<asrwt>0</asrwt>
<pdfrwt beam="1">  1       22 0.69126627E+00 0.23592359E+03</pdfrwt>
<pdfrwt beam="2">0</pdfrwt>
<totfact> 0.15365909E-03</totfact>
</mgrwt>
</event>
<event>
 4    1  0.8237115E+000  0.1297774E+03  0.7818608E-02  0.1124040E+00
         22   -1    0    0    0    0  0.00000000000E+00  0.00000000000E+00  0.14095338500E+02  0.14095338500E+02  0.00000000000E+00 0. -1.
         22   -1    0    0    0    0 -0.00000000000E+00 -0.00000000000E+00 -0.12924613079E+04  0.12924613079E+04  0.00000000000E+00 0. -1.
         24    1    1    2    0    0 -0.10062924351E+03 -0.18547225990E+02 -0.81869069917E+03  0.82891292278E+03  0.79824359746E+02 0.  0.
        -24    1    1    2    0    0  0.10062924351E+03  0.18547225990E+02 -0.45967527028E+03  0.47764372366E+03  0.79824359746E+02 0.  0.
<mgrwt>
<rscale>  0 0.12977740E+03</rscale>
<asrwt>0</asrwt>
<pdfrwt beam="1">  1       22 0.28189441E+00 0.12977740E+03</pdfrwt>
<pdfrwt beam="2">0</pdfrwt>
<totfact> 0.20477541E-02</totfact>
</mgrwt>
</event>
<event>
 4    1  0.8237115E+000  0.9427475E+02  0.7818608E-02  0.1178066E+00
         22   -1    0    0    0    0  0.00000000000E+00  0.00000000000E+00  0.29883682467E+02  0.29883682467E+02  0.00000000000E+00 0. -1.
         22   -1    0    0    0    0 -0.00000000000E+00 -0.00000000000E+00 -0.15106000210E+04  0.15106000210E+04  0.00000000000E+00 0. -1.
         24    1    1    2    0    0  0.32345171397E+02 -0.38335229035E+02 -0.50091901540E+02  0.10675639047E+03  0.79824359746E+02 0.  0.
        -24    1    1    2    0    0 -0.32345171397E+02  0.38335229035E+02 -0.14306244370E+04  0.14337273130E+04  0.79824359746E+02 0.  0.
<mgrwt>
<rscale>  0 0.94274749E+02</rscale>
<asrwt>0</asrwt>
<pdfrwt beam="1">  1       22 0.59763821E+00 0.94274749E+02</pdfrwt>
<pdfrwt beam="2">0</pdfrwt>
<totfact> 0.46250124E-03</totfact>
</mgrwt>
</event>
<event>
 4    1  0.8237115E+000  0.2538830E+03  0.7818608E-02  0.1025582E+00
         22   -1    0    0    0    0  0.00000000000E+00  0.00000000000E+00  0.41198173156E+02  0.41198173156E+02  0.00000000000E+00 0.  1.
         22   -1    0    0    0    0 -0.00000000000E+00 -0.00000000000E+00 -0.28361020510E+04  0.28361020510E+04  0.00000000000E+00 0.  1.
         24    1    1    2    0    0 -0.20601693692E+03 -0.12506676219E+03 -0.43415245263E+03  0.50293633179E+03  0.79824359746E+02 0.  0.
        -24    1    1    2    0    0  0.20601693692E+03  0.12506676219E+03 -0.23607514252E+04  0.23743638924E+04  0.79824359746E+02 0.  0.
<mgrwt>
<rscale>  0 0.25388305E+03</rscale>
<asrwt>0</asrwt>
<pdfrwt beam="1">  1       22 0.82395087E+00 0.25388305E+03</pdfrwt>
<pdfrwt beam="2">0</pdfrwt>
<totfact> 0.45448868E-04</totfact>
</mgrwt>
</event>
<event>
 4    1  0.8237115E+000  0.2709988E+03  0.7818608E-02  0.1016939E+00
         22   -1    0    0    0    0  0.00000000000E+00  0.00000000000E+00  0.48690524364E+02  0.48690524364E+02  0.00000000000E+00 0.  1.
         22   -1    0    0    0    0 -0.00000000000E+00 -0.00000000000E+00 -0.15935271206E+04  0.15935271206E+04  0.00000000000E+00 0.  1.
         24    1    1    2    0    0  0.17826062400E+03 -0.18786049351E+03 -0.58253462469E+03  0.64248496672E+03  0.79824359746E+02 0. -1.
        -24    1    1    2    0    0 -0.17826062400E+03  0.18786049351E+03 -0.96230197150E+03  0.99973267819E+03  0.79824359746E+02 0. -1.
<mgrwt>
<rscale>  0 0.27099879E+03</rscale>
<asrwt>0</asrwt>
<pdfrwt beam="1">  1       22 0.97377492E+00 0.27099879E+03</pdfrwt>
<pdfrwt beam="2">0</pdfrwt>
<totfact> 0.20537922E-03</totfact>
</mgrwt>
</event>
<event>
 4    1  0.8237115E+000  0.4042531E+03  0.7818608E-02  0.9670397E-01
         22   -1    0    0    0    0  0.00000000000E+00  0.00000000000E+00  0.39415583096E+02  0.39415583096E+02  0.00000000000E+00 0.  1.
         22   -1    0    0    0    0 -0.00000000000E+00 -0.00000000000E+00 -0.41972836209E+04  0.41972836209E+04  0.00000000000E+00 0.  1.
         24    1    1    2    0    0 -0.24298895489E+03  0.31305746393E+03 -0.23128842084E+04  0.23479467408E+04  0.79824359746E+02 0.  0.
        -24    1    1    2    0    0  0.24298895489E+03 -0.31305746393E+03 -0.18449838294E+04  0.18887524632E+04  0.79824359746E+02 0.  0.
<mgrwt>
<rscale>  0 0.40425306E+03</rscale>
<asrwt>0</asrwt>
<pdfrwt beam="1">  1       22 0.78825994E+00 0.40425306E+03</pdfrwt>
<pdfrwt beam="2">0</pdfrwt>
<totfact> 0.54655115E-05</totfact>
</mgrwt>
</event>
<event>
 4    1  0.8237115E+000  0.3138240E+03  0.7818608E-02  0.9980345E-01
         22   -1    0    0    0    0  0.00000000000E+00  0.00000000000E+00  0.39112532542E+02  0.39112532542E+02  0.00000000000E+00 0. -1.
         22   -1    0    0    0    0 -0.00000000000E+00 -0.00000000000E+00 -0.25185077473E+04  0.25185077473E+04  0.00000000000E+00 0. -1.
         24    1    1    2    0    0 -0.15941709623E+03 -0.25826294097E+03 -0.12577962580E+04  0.12963552415E+04  0.79824359746E+02 0.  0.
        -24    1    1    2    0    0  0.15941709623E+03  0.25826294097E+03 -0.12215989567E+04  0.12612650383E+04  0.79824359746E+02 0.  0.
<mgrwt>
<rscale>  0 0.31382397E+03</rscale>
<asrwt>0</asrwt>
<pdfrwt beam="1">  1       22 0.78231573E+00 0.31382397E+03</pdfrwt>
<pdfrwt beam="2">0</pdfrwt>
<totfact> 0.78051360E-04</totfact>
</mgrwt>
</event>
<event>
 4    1  0.8237115E+000  0.2236281E+03  0.7818608E-02  0.1042828E+00
         22   -1    0    0    0    0  0.00000000000E+00  0.00000000000E+00  0.41111656736E+02  0.41111656736E+02  0.00000000000E+00 0.  1.
         22   -1    0    0    0    0 -0.00000000000E+00 -0.00000000000E+00 -0.27542090802E+04  0.27542090802E+04  0.00000000000E+00 0.  1.
         24    1    1    2    0    0 -0.15504124460E+03 -0.13999936107E+03 -0.31218954748E+03  0.38402063823E+03  0.79824359746E+02 0.  0.
        -24    1    1    2    0    0  0.15504124460E+03  0.13999936107E+03 -0.24009078760E+04  0.24113000987E+04  0.79824359746E+02 0.  0.
<mgrwt>
<rscale>  0 0.22362812E+03</rscale>
<asrwt>0</asrwt>
<pdfrwt beam="1">  1       22 0.82226354E+00 0.22362812E+03</pdfrwt>
<pdfrwt beam="2">0</pdfrwt>
<totfact> 0.50681348E-04</totfact>
</mgrwt>
</event>
<event>
 4    1  0.8237115E+000  0.2415257E+03  0.7818608E-02  0.1032294E+00
         22   -1    0    0    0    0  0.00000000000E+00  0.00000000000E+00  0.34374828665E+02  0.34374828665E+02  0.00000000000E+00 0. -1.
         22   -1    0    0    0    0 -0.00000000000E+00 -0.00000000000E+00 -0.28624901030E+04  0.28624901030E+04  0.00000000000E+00 0. -1.
         24    1    1    2    0    0  0.22655069968E+03 -0.25249308792E+02 -0.23382818543E+04  0.23507225923E+04  0.79824359746E+02 0.  0.
        -24    1    1    2    0    0 -0.22655069968E+03  0.25249308792E+02 -0.48983342004E+03  0.54614233943E+03  0.79824359746E+02 0.  0.
<mgrwt>
<rscale>  0 0.24152572E+03</rscale>
<asrwt>0</asrwt>
<pdfrwt beam="1">  1       22 0.68754646E+00 0.24152572E+03</pdfrwt>
<pdfrwt beam="2">0</pdfrwt>
<totfact> 0.57248441E-04</totfact>
</mgrwt>
</event>
<event>
 4    1  0.8237115E+000  0.1092592E+03  0.7818608E-02  0.1152486E+00
         22   -1    0    0    0    0  0.00000000000E+00  0.00000000000E+00  0.14968155180E+02  0.14968155180E+02  0.00000000000E+00 0.  1.
         22   -1    0    0    0    0 -0.00000000000E+00 -0.00000000000E+00 -0.27286980681E+04  0.27286980681E+04  0.00000000000E+00 0.  1.
         24    1    1    2    0    0  0.31712967406E+02 -0.67527294327E+02 -0.25109382726E+04  0.25133142630E+04  0.79824359746E+02 0.  0.
        -24    1    1    2    0    0 -0.31712967406E+02  0.67527294327E+02 -0.20279164041E+03  0.23035196029E+03  0.79824359746E+02 0.  0.
<mgrwt>
<rscale>  0 0.10925922E+03</rscale>
<asrwt>0</asrwt>
<pdfrwt beam="1">  1       22 0.29936465E+00 0.10925922E+03</pdfrwt>
<pdfrwt beam="2">0</pdfrwt>
<totfact> 0.22024125E-03</totfact>
</mgrwt>
</event>
<event>
 4    1  0.8237115E+000  0.2685338E+03  0.7818608E-02  0.1018141E+00
         22   -1    0    0    0    0  0.00000000000E+00  0.00000000000E+00  0.22007842598E+02  0.22007842598E+02  0.00000000000E+00 0.  1.
         22   -1    0    0    0    0 -0.00000000000E+00 -0.00000000000E+00 -0.35433716081E+04  0.35433716081E+04  0.00000000000E+00 0.  1.
         24    1    1    2    0    0  0.11911776142E+03  0.22704500682E+03 -0.22498469407E+04  0.22658158930E+04  0.79824359746E+02 0.  0.
        -24    1    1    2    0    0 -0.11911776142E+03 -0.22704500682E+03 -0.12715168248E+04  0.12995635576E+04  0.79824359746E+02 0.  0.
<mgrwt>
<rscale>  0 0.26853381E+03</rscale>
<asrwt>0</asrwt>
<pdfrwt beam="1">  1       22 0.44021021E+00 0.26853381E+03</pdfrwt>
<pdfrwt beam="2">0</pdfrwt>
<totfact> 0.40378430E-04</totfact>
</mgrwt>
</event>
<event>
 4    1  0.8237115E+000  0.2843105E+03  0.7818608E-02  0.1010680E+00
         22   -1    0    0    0    0  0.00000000000E+00  0.00000000000E+00  0.49694797902E+02  0.49694797902E+02  0.00000000000E+00 0. -1.
         22   -1    0    0    0    0 -0.00000000000E+00 -0.00000000000E+00 -0.16488894262E+04  0.16488894262E+04  0.00000000000E+00 0. -1.
         24    1    1    2    0    0 -0.23897718573E+03 -0.13172108722E+03 -0.89838988710E+03  0.94230401558E+03  0.79824359746E+02 0.  0.
        -24    1    1    2    0    0  0.23897718573E+03  0.13172108722E+03 -0.70080474124E+03  0.75628020857E+03  0.79824359746E+02 0.  0.
<mgrwt>
<rscale>  0 0.28431051E+03</rscale>
<asrwt>0</asrwt>
<pdfrwt beam="1">  1       22 0.99386811E+00 0.28431051E+03</pdfrwt>
<pdfrwt beam="2">0</pdfrwt>
<totfact> 0.17335452E-03</totfact>
</mgrwt>
</event>
<event>
 4    1  0.8237115E+000  0.1466373E+03  0.7818608E-02  0.1104706E+00
         22   -1    0    0    0    0  0.00000000000E+00  0.00000000000E+00  0.48021125197E+02  0.48021125197E+02  0.00000000000E+00 0.  1.
         22   -1    0    0    0    0 -0.00000000000E+00 -0.00000000000E+00 -0.31542873463E+04  0.31542873463E+04  0.00000000000E+00 0.  1.
         24    1    1    2    0    0 -0.79977350477E+02 -0.93456866691E+02 -0.30362925131E+04  0.30398313631E+04  0.79824359746E+02 0.  0.
        -24    1    1    2    0    0  0.79977350477E+02  0.93456866691E+02 -0.69973707926E+02  0.16247710833E+03  0.79824359746E+02 0.  0.
<mgrwt>
<rscale>  0 0.14663728E+03</rscale>
<asrwt>0</asrwt>
<pdfrwt beam="1">  1       22 0.96044495E+00 0.14663728E+03</pdfrwt>
<pdfrwt beam="2">0</pdfrwt>
<totfact> 0.21282286E-04</totfact>
</mgrwt>
</event>
<event>
 4    1  0.8237115E+000  0.1942241E+03  0.7818608E-02  0.1062696E+00
         22   -1    0    0    0    0  0.00000000000E+00  0.00000000000E+00  0.44349610642E+02  0.44349610642E+02  0.00000000000E+00 0. -1.
         22   -1    0    0    0    0 -0.00000000000E+00 -0.00000000000E+00 -0.12198735334E+04  0.12198735334E+04  0.00000000000E+00 0. -1.
         24    1    1    2    0    0 -0.22061464883E+01 -0.17704864773E+03 -0.93555469149E+03  0.95550279954E+03  0.79824359746E+02 0.  0.
        -24    1    1    2    0    0  0.22061464883E+01  0.17704864773E+03 -0.23996923126E+03  0.30872034450E+03  0.79824359746E+02 0.  0.
<mgrwt>
<rscale>  0 0.19422415E+03</rscale>
<asrwt>0</asrwt>
<pdfrwt beam="1">  1       22 0.88697688E+00 0.19422415E+03</pdfrwt>
<pdfrwt beam="2">0</pdfrwt>
<totfact> 0.44669896E-03</totfact>
</mgrwt>
</event>
<event>
 4    1  0.8237115E+000  0.2440240E+03  0.7818608E-02  0.1030902E+00
         22   -1    0    0    0    0  0.00000000000E+00  0.00000000000E+00  0.25374977871E+02  0.25374977871E+02  0.00000000000E+00 0.  1.
         22   -1    0    0    0    0 -0.00000000000E+00 -0.00000000000E+00 -0.24669149160E+04  0.24669149160E+04  0.00000000000E+00 0.  1.
         24    1    1    2    0    0 -0.22494878045E+03 -0.50732944774E+02 -0.14958459172E+04  0.15156195835E+04  0.79824359746E+02 0.  0.
        -24    1    1    2    0    0  0.22494878045E+03  0.50732944774E+02 -0.94569402095E+03  0.97667031038E+03  0.79824359746E+02 0.  0.
<mgrwt>
<rscale>  0 0.24402400E+03</rscale>
<asrwt>0</asrwt>
<pdfrwt beam="1">  1       22 0.50747093E+00 0.24402400E+03</pdfrwt>
<pdfrwt beam="2">0</pdfrwt>
<totfact> 0.15816854E-03</totfact>
</mgrwt>
</event>
<event>
 4    1  0.8237115E+000  0.3142959E+03  0.7818608E-02  0.9978446E-01
         22   -1    0    0    0    0  0.00000000000E+00  0.00000000000E+00  0.48535017023E+02  0.48535017023E+02  0.00000000000E+00 0. -1.
         22   -1    0    0    0    0 -0.00000000000E+00 -0.00000000000E+00 -0.27889590507E+04  0.27889590507E+04  0.00000000000E+00 0. -1.
         24    1    1    2    0    0 -0.88280071360E+02  0.29088931859E+03 -0.21077422313E+04  0.21310465056E+04  0.79824359746E+02 0.  0.
        -24    1    1    2    0    0  0.88280071360E+02 -0.29088931859E+03 -0.63268180229E+03  0.70644756212E+03  0.79824359746E+02 0.  0.
<mgrwt>
<rscale>  0 0.31429587E+03</rscale>
<asrwt>0</asrwt>
<pdfrwt beam="1">  1       22 0.97076800E+00 0.31429587E+03</pdfrwt>
<pdfrwt beam="2">0</pdfrwt>
<totfact> 0.37747215E-04</totfact>
</mgrwt>
</event>
<event>
 4    1  0.8237115E+000  0.2825890E+03  0.7818608E-02  0.1011469E+00
         22   -1    0    0    0    0  0.00000000000E+00  0.00000000000E+00  0.40295927657E+02  0.40295927657E+02  0.00000000000E+00 0.  1.
         22   -1    0    0    0    0 -0.00000000000E+00 -0.00000000000E+00 -0.21684349034E+04  0.21684349034E+04  0.00000000000E+00 0.  1.
         24    1    1    2    0    0  0.23425230309E+03 -0.13642018265E+03 -0.74003454171E+03  0.79215381024E+03  0.79824359746E+02 0.  0.
        -24    1    1    2    0    0 -0.23425230309E+03  0.13642018265E+03 -0.13881044340E+04  0.14165770208E+04  0.79824359746E+02 0.  0.
<mgrwt>
<rscale>  0 0.28258899E+03</rscale>
<asrwt>0</asrwt>
<pdfrwt beam="1">  1       22 0.80596014E+00 0.28258899E+03</pdfrwt>
<pdfrwt beam="2">0</pdfrwt>
<totfact> 0.12058424E-03</totfact>
</mgrwt>
</event>
<event>
 4    1  0.8237115E+000  0.1541282E+03  0.7818608E-02  0.1097013E+00
         22   -1    0    0    0    0  0.00000000000E+00  0.00000000000E+00  0.44251419236E+02  0.44251419236E+02  0.00000000000E+00 0. -1.
         22   -1    0    0    0    0 -0.00000000000E+00 -0.00000000000E+00 -0.38531411290E+04  0.38531411290E+04  0.00000000000E+00 0. -1.
         24    1    1    2    0    0 -0.10286721762E+03  0.82473745976E+02 -0.37123027822E+04  0.37155009701E+04  0.79824359746E+02 0.  0.
        -24    1    1    2    0    0  0.10286721762E+03 -0.82473745976E+02 -0.96586927584E+02  0.18189157821E+03  0.79824359746E+02 0.  0.
<mgrwt>
<rscale>  0 0.15412823E+03</rscale>
<asrwt>0</asrwt>
<pdfrwt beam="1">  1       22 0.88502657E+00 0.15412823E+03</pdfrwt>
<pdfrwt beam="2">0</pdfrwt>
<totfact> 0.79953524E-05</totfact>
</mgrwt>
</event>
<event>
 4    1  0.8237115E+000  0.1752368E+03  0.7818608E-02  0.1077689E+00
         22   -1    0    0    0    0  0.00000000000E+00  0.00000000000E+00  0.39789365008E+02  0.39789365008E+02  0.00000000000E+00 0. -1.
         22   -1    0    0    0    0 -0.00000000000E+00 -0.00000000000E+00 -0.14411583894E+04  0.14411583894E+04  0.00000000000E+00 0. -1.
         24    1    1    2    0    0 -0.10125899541E+03 -0.11867026087E+03 -0.19602858750E+03  0.26293563945E+03  0.79824359746E+02 0.  0.
        -24    1    1    2    0    0  0.10125899541E+03  0.11867026087E+03 -0.12053404369E+04  0.12180121149E+04  0.79824359746E+02 0.  0.
<mgrwt>
<rscale>  0 0.17523682E+03</rscale>
<asrwt>0</asrwt>
<pdfrwt beam="1">  1       22 0.79581285E+00 0.17523682E+03</pdfrwt>
<pdfrwt beam="2">0</pdfrwt>
<totfact> 0.35355937E-03</totfact>
</mgrwt>
</event>
<event>
 4    1  0.8237115E+000  0.2064232E+03  0.7818608E-02  0.1054017E+00
         22   -1    0    0    0    0  0.00000000000E+00  0.00000000000E+00  0.25519534305E+02  0.25519534305E+02  0.00000000000E+00 0. -1.
         22   -1    0    0    0    0 -0.00000000000E+00 -0.00000000000E+00 -0.20303838754E+04  0.20303838754E+04  0.00000000000E+00 0. -1.
         24    1    1    2    0    0  0.19029647150E+03  0.50838622828E+01 -0.56918682033E+03  0.60546193734E+03  0.79824359746E+02 0.  0.
        -24    1    1    2    0    0 -0.19029647150E+03 -0.50838622828E+01 -0.14356775208E+04  0.14504414724E+04  0.79824359746E+02 0.  0.
<mgrwt>
<rscale>  0 0.20642316E+03</rscale>
<asrwt>0</asrwt>
<pdfrwt beam="1">  1       22 0.51038479E+00 0.20642316E+03</pdfrwt>
<pdfrwt beam="2">0</pdfrwt>
<totfact> 0.28542025E-03</totfact>
</mgrwt>
</event>
<event>
 4    1  0.8237115E+000  0.1619307E+03  0.7818608E-02  0.1089495E+00
         22   -1    0    0    0    0  0.00000000000E+00  0.00000000000E+00  0.28691385246E+02  0.28691385246E+02  0.00000000000E+00 0. -1.
         22   -1    0    0    0    0 -0.00000000000E+00 -0.00000000000E+00 -0.15416579825E+04  0.15416579825E+04  0.00000000000E+00 0. -1.
         24    1    1    2    0    0 -0.27751077755E+01 -0.14086139435E+03 -0.25545494586E+03  0.30245461050E+03  0.79824359746E+02 0.  0.
        -24    1    1    2    0    0  0.27751077755E+01  0.14086139435E+03 -0.12575116514E+04  0.12678947572E+04  0.79824359746E+02 0.  0.
<mgrwt>
<rscale>  0 0.16193073E+03</rscale>
<asrwt>0</asrwt>
<pdfrwt beam="1">  1       22 0.57381668E+00 0.16193073E+03</pdfrwt>
<pdfrwt beam="2">0</pdfrwt>
<totfact> 0.48935053E-03</totfact>
</mgrwt>
</event>
<event>
 4    1  0.8237115E+000  0.3024516E+03  0.7818608E-02  0.1002723E+00
         22   -1    0    0    0    0  0.00000000000E+00  0.00000000000E+00  0.28495229252E+02  0.28495229252E+02  0.00000000000E+00 0.  1.
         22   -1    0    0    0    0 -0.00000000000E+00 -0.00000000000E+00 -0.36876890948E+04  0.36876890948E+04  0.00000000000E+00 0.  1.
         24    1    1    2    0    0 -0.16493606538E+03 -0.24062659488E+03 -0.11610280221E+04  0.11997762543E+04  0.79824359746E+02 0.  0.
        -24    1    1    2    0    0  0.16493606538E+03  0.24062659488E+03 -0.24981658434E+04  0.25164080697E+04  0.79824359746E+02 0.  0.
<mgrwt>
<rscale>  0 0.30245164E+03</rscale>
<asrwt>0</asrwt>
<pdfrwt beam="1">  1       22 0.56985342E+00 0.30245164E+03</pdfrwt>
<pdfrwt beam="2">0</pdfrwt>
<totfact> 0.21815973E-04</totfact>
</mgrwt>
</event>
<event>
 4    1  0.8237115E+000  0.4211688E+03  0.7818608E-02  0.9622053E-01
         22   -1    0    0    0    0  0.00000000000E+00  0.00000000000E+00  0.48176738746E+02  0.48176738746E+02  0.00000000000E+00 0. -1.
         22   -1    0    0    0    0 -0.00000000000E+00 -0.00000000000E+00 -0.37448789194E+04  0.37448789194E+04  0.00000000000E+00 0. -1.
         24    1    1    2    0    0  0.38693067402E+03 -0.14593105531E+03 -0.16024553125E+04  0.16568784434E+04  0.79824359746E+02 0.  0.
        -24    1    1    2    0    0 -0.38693067402E+03  0.14593105531E+03 -0.20942468682E+04  0.21361772147E+04  0.79824359746E+02 0.  0.
<mgrwt>
<rscale>  0 0.42116879E+03</rscale>
<asrwt>0</asrwt>
<pdfrwt beam="1">  1       22 0.96354318E+00 0.42116879E+03</pdfrwt>
<pdfrwt beam="2">0</pdfrwt>
<totfact> 0.90697276E-05</totfact>
</mgrwt>
</event>
<event>
 4    1  0.8237115E+000  0.1845885E+03  0.7818608E-02  0.1070058E+00
         22   -1    0    0    0    0  0.00000000000E+00  0.00000000000E+00  0.26256900713E+02  0.26256900713E+02  0.00000000000E+00 0. -1.
         22   -1    0    0    0    0 -0.00000000000E+00 -0.00000000000E+00 -0.25197343209E+04  0.25197343209E+04  0.00000000000E+00 0. -1.
         24    1    1    2    0    0  0.14540981059E+03 -0.80975067966E+02 -0.21332735623E+04  0.21412447302E+04  0.79824359746E+02 0.  0.
        -24    1    1    2    0    0 -0.14540981059E+03  0.80975067966E+02 -0.36020385781E+03  0.40474649132E+03  0.79824359746E+02 0.  0.
<mgrwt>
<rscale>  0 0.18458847E+03</rscale>
<asrwt>0</asrwt>
<pdfrwt beam="1">  1       22 0.52513743E+00 0.18458847E+03</pdfrwt>
<pdfrwt beam="2">0</pdfrwt>
<totfact> 0.13661928E-03</totfact>
</mgrwt>
</event>
<event>
 4    1  0.8237115E+000  0.2836720E+03  0.7818608E-02  0.1010972E+00
         22   -1    0    0    0    0  0.00000000000E+00  0.00000000000E+00  0.23849367147E+02  0.23849367147E+02  0.00000000000E+00 0.  1.
         22   -1    0    0    0    0 -0.00000000000E+00 -0.00000000000E+00 -0.37829029348E+04  0.37829029348E+04  0.00000000000E+00 0.  1.
         24    1    1    2    0    0  0.86199855143E+02 -0.25820045755E+03 -0.12538120579E+04  0.12855016516E+04  0.79824359746E+02 0.  0.
        -24    1    1    2    0    0 -0.86199855143E+02  0.25820045755E+03 -0.25052415097E+04  0.25212506503E+04  0.79824359746E+02 0.  0.
<mgrwt>
<rscale>  0 0.28367203E+03</rscale>
<asrwt>0</asrwt>
<pdfrwt beam="1">  1       22 0.47691390E+00 0.28367203E+03</pdfrwt>
<pdfrwt beam="2">0</pdfrwt>
<totfact> 0.24124316E-04</totfact>
</mgrwt>
</event>
<event>
 4    1  0.8237115E+000  0.2528551E+03  0.7818608E-02  0.1026124E+00
         22   -1    0    0    0    0  0.00000000000E+00  0.00000000000E+00  0.46117743957E+02  0.46117743957E+02  0.00000000000E+00 0.  1.
         22   -1    0    0    0    0 -0.00000000000E+00 -0.00000000000E+00 -0.22895578857E+04  0.22895578857E+04  0.00000000000E+00 0.  1.
         24    1    1    2    0    0 -0.23901547938E+03 -0.20865158292E+02 -0.38822235746E+03  0.46330581850E+03  0.79824359746E+02 0.  0.
        -24    1    1    2    0    0  0.23901547938E+03  0.20865158292E+02 -0.18552177843E+04  0.18723698112E+04  0.79824359746E+02 0.  0.
<mgrwt>
<rscale>  0 0.25285506E+03</rscale>
<asrwt>0</asrwt>
<pdfrwt beam="1">  1       22 0.92234006E+00 0.25285506E+03</pdfrwt>
<pdfrwt beam="2">0</pdfrwt>
<totfact> 0.82093095E-04</totfact>
</mgrwt>
</event>
<event>
 4    1  0.8237115E+000  0.2265287E+03  0.7818608E-02  0.1041050E+00
         22   -1    0    0    0    0  0.00000000000E+00  0.00000000000E+00  0.31841709743E+02  0.31841709743E+02  0.00000000000E+00 0. -1.
         22   -1    0    0    0    0 -0.00000000000E+00 -0.00000000000E+00 -0.16289972499E+04  0.16289972499E+04  0.00000000000E+00 0. -1.
         24    1    1    2    0    0  0.24855401091E+02 -0.21053634190E+03 -0.71269574219E+03  0.74783052329E+03  0.79824359746E+02 0.  0.
        -24    1    1    2    0    0 -0.24855401091E+02  0.21053634190E+03 -0.88445979801E+03  0.91300843640E+03  0.79824359746E+02 0.  0.
<mgrwt>
<rscale>  0 0.22652874E+03</rscale>
<asrwt>0</asrwt>
<pdfrwt beam="1">  1       22 0.63677385E+00 0.22652874E+03</pdfrwt>
<pdfrwt beam="2">0</pdfrwt>
<totfact> 0.37333369E-03</totfact>
</mgrwt>
</event>
<event>
 4    1  0.8237115E+000  0.2364321E+03  0.7818608E-02  0.1035188E+00
         22   -1    0    0    0    0  0.00000000000E+00  0.00000000000E+00  0.24979572189E+02  0.24979572189E+02  0.00000000000E+00 0. -1.
         22   -1    0    0    0    0 -0.00000000000E+00 -0.00000000000E+00 -0.25938115398E+04  0.25938115398E+04  0.00000000000E+00 0. -1.
         24    1    1    2    0    0 -0.87785761312E+02 -0.20450398939E+03 -0.17694951359E+04  0.17852207667E+04  0.79824359746E+02 0.  0.
        -24    1    1    2    0    0  0.87785761312E+02  0.20450398939E+03 -0.79933683173E+03  0.83357034528E+03  0.79824359746E+02 0.  0.
<mgrwt>
<rscale>  0 0.23643213E+03</rscale>
<asrwt>0</asrwt>
<pdfrwt beam="1">  1       22 0.49957526E+00 0.23643213E+03</pdfrwt>
<pdfrwt beam="2">0</pdfrwt>
<totfact> 0.13538670E-03</totfact>
</mgrwt>
</event>
<event>
 4    1  0.8237115E+000  0.2351961E+03  0.7818608E-02  0.1035903E+00
         22   -1    0    0    0    0  0.00000000000E+00  0.00000000000E+00  0.44268429947E+02  0.44268429947E+02  0.00000000000E+00 0. -1.
         22   -1    0    0    0    0 -0.00000000000E+00 -0.00000000000E+00 -0.15012726608E+04  0.15012726608E+04  0.00000000000E+00 0. -1.
         24    1    1    2    0    0  0.21889336142E+03 -0.32108753045E+02 -0.10449126923E+04  0.10710554321E+04  0.79824359746E+02 0.  0.
        -24    1    1    2    0    0 -0.21889336142E+03  0.32108753045E+02 -0.41209153851E+03  0.47448565860E+03  0.79824359746E+02 0.  0.
<mgrwt>
<rscale>  0 0.23519610E+03</rscale>
<asrwt>0</asrwt>
<pdfrwt beam="1">  1       22 0.88539243E+00 0.23519610E+03</pdfrwt>
<pdfrwt beam="2">0</pdfrwt>
<totfact> 0.27940280E-03</totfact>
</mgrwt>
</event>
<event>
 4    1  0.8237115E+000  0.1404497E+03  0.7818608E-02  0.1111452E+00
         22   -1    0    0    0    0  0.00000000000E+00  0.00000000000E+00  0.25179090333E+02  0.25179090333E+02  0.00000000000E+00 0. -1.
         22   -1    0    0    0    0 -0.00000000000E+00 -0.00000000000E+00 -0.11467044464E+04  0.11467044464E+04  0.00000000000E+00 0. -1.
         24    1    1    2    0    0  0.82413741165E+02 -0.81007258329E+02 -0.23096744797E+03  0.27031849930E+03  0.79824359746E+02 0.  0.
        -24    1    1    2    0    0 -0.82413741165E+02  0.81007258329E+02 -0.89055790811E+03  0.90156503744E+03  0.79824359746E+02 0.  0.
<mgrwt>
<rscale>  0 0.14044974E+03</rscale>
<asrwt>0</asrwt>
<pdfrwt beam="1">  1       22 0.50357942E+00 0.14044974E+03</pdfrwt>
<pdfrwt beam="2">0</pdfrwt>
<totfact> 0.11775404E-02</totfact>
</mgrwt>
</event>
<event>
 4    1  0.8237115E+000  0.3011116E+03  0.7818608E-02  0.1003290E+00
         22   -1    0    0    0    0  0.00000000000E+00  0.00000000000E+00  0.22653794325E+02  0.22653794325E+02  0.00000000000E+00 0. -1.
         22   -1    0    0    0    0 -0.00000000000E+00 -0.00000000000E+00 -0.41799080110E+04  0.41799080110E+04  0.00000000000E+00 0. -1.
         24    1    1    2    0    0 -0.49824375684E+02 -0.28603107902E+03 -0.16455315052E+04  0.16728544795E+04  0.79824359746E+02 0.  0.
        -24    1    1    2    0    0  0.49824375684E+02  0.28603107902E+03 -0.25117227115E+04  0.25297073258E+04  0.79824359746E+02 0.  0.
<mgrwt>
<rscale>  0 0.30111157E+03</rscale>
<asrwt>0</asrwt>
<pdfrwt beam="1">  1       22 0.45308122E+00 0.30111157E+03</pdfrwt>
<pdfrwt beam="2">0</pdfrwt>
<totfact> 0.12724505E-04</totfact>
</mgrwt>
</event>
<event>
 4    1  0.8237115E+000  0.1058209E+03  0.7818608E-02  0.1157934E+00
         22   -1    0    0    0    0  0.00000000000E+00  0.00000000000E+00  0.40695421422E+02  0.40695421422E+02  0.00000000000E+00 0.  1.
         22   -1    0    0    0    0 -0.00000000000E+00 -0.00000000000E+00 -0.32735177319E+04  0.32735177319E+04  0.00000000000E+00 0.  1.
         24    1    1    2    0    0 -0.51406966659E+02  0.46727385519E+02 -0.32023421243E+04  0.32040900634E+04  0.79824359746E+02 0.  0.
        -24    1    1    2    0    0  0.51406966659E+02 -0.46727385519E+02 -0.30480186169E+02  0.11012308993E+03  0.79824359746E+02 0.  0.
<mgrwt>
<rscale>  0 0.10582085E+03</rscale>
<asrwt>0</asrwt>
<pdfrwt beam="1">  1       22 0.81389739E+00 0.10582085E+03</pdfrwt>
<pdfrwt beam="2">0</pdfrwt>
<totfact> 0.22604402E-04</totfact>
</mgrwt>
</event>
<event>
 4    1  0.8237115E+000  0.2169108E+03  0.7818608E-02  0.1047062E+00
         22   -1    0    0    0    0  0.00000000000E+00  0.00000000000E+00  0.37109641067E+02  0.37109641067E+02  0.00000000000E+00 0. -1.
         22   -1    0    0    0    0 -0.00000000000E+00 -0.00000000000E+00 -0.14146354786E+04  0.14146354786E+04  0.00000000000E+00 0. -1.
         24    1    1    2    0    0  0.15047134053E+03 -0.13430088029E+03 -0.92256422418E+03  0.94772096469E+03  0.79824359746E+02 0.  0.
        -24    1    1    2    0    0 -0.15047134053E+03  0.13430088029E+03 -0.45496161337E+03  0.50402415500E+03  0.79824359746E+02 0.  0.
<mgrwt>
<rscale>  0 0.21691076E+03</rscale>
<asrwt>0</asrwt>
<pdfrwt beam="1">  1       22 0.74220937E+00 0.21691076E+03</pdfrwt>
<pdfrwt beam="2">0</pdfrwt>
<totfact> 0.41778801E-03</totfact>
</mgrwt>
</event>
<event>
 4    1  0.8237115E+000  0.1191373E+03  0.7818608E-02  0.1137998E+00
         22   -1    0    0    0    0  0.00000000000E+00  0.00000000000E+00  0.16379113065E+02  0.16379113065E+02  0.00000000000E+00 0. -1.
         22   -1    0    0    0    0 -0.00000000000E+00 -0.00000000000E+00 -0.34098916137E+04  0.34098916137E+04  0.00000000000E+00 0. -1.
         24    1    1    2    0    0  0.70351757140E+01  0.88160567458E+02 -0.31762792549E+04  0.31785127989E+04  0.79824359746E+02 0.  0.
        -24    1    1    2    0    0 -0.70351757140E+01 -0.88160567458E+02 -0.21723324575E+03  0.24775792787E+03  0.79824359746E+02 0.  0.
<mgrwt>
<rscale>  0 0.11913735E+03</rscale>
<asrwt>0</asrwt>
<pdfrwt beam="1">  1       22 0.32762015E+00 0.11913735E+03</pdfrwt>
<pdfrwt beam="2">0</pdfrwt>
<totfact> 0.71616160E-04</totfact>
</mgrwt>
</event>
<event>
 4    1  0.8237115E+000  0.1253573E+03  0.7818608E-02  0.1129652E+00
         22   -1    0    0    0    0  0.00000000000E+00  0.00000000000E+00  0.20843356134E+02  0.20843356134E+02  0.00000000000E+00 0.  1.
         22   -1    0    0    0    0 -0.00000000000E+00 -0.00000000000E+00 -0.87820792594E+03  0.87820792594E+03  0.00000000000E+00 0.  1.
         24    1    1    2    0    0  0.96019434751E+02 -0.11080996680E+02 -0.25957927231E+03  0.28826350335E+03  0.79824359746E+02 0.  0.
        -24    1    1    2    0    0 -0.96019434751E+02  0.11080996680E+02 -0.59778529749E+03  0.61078777873E+03  0.79824359746E+02 0.  0.
<mgrwt>
<rscale>  0 0.12535728E+03</rscale>
<asrwt>0</asrwt>
<pdfrwt beam="1">  1       22 0.41687674E+00 0.12535728E+03</pdfrwt>
<pdfrwt beam="2">0</pdfrwt>
<totfact> 0.27137957E-02</totfact>
</mgrwt>
</event>
<event>
 4    1  0.8237115E+000  0.2662223E+03  0.7818608E-02  0.1019280E+00
         22   -1    0    0    0    0  0.00000000000E+00  0.00000000000E+00  0.42729702842E+02  0.42729702842E+02  0.00000000000E+00 0. -1.
         22   -1    0    0    0    0 -0.00000000000E+00 -0.00000000000E+00 -0.17548860048E+04  0.17548860048E+04  0.00000000000E+00 0. -1.
         24    1    1    2    0    0 -0.22467195637E+03  0.11842677593E+03 -0.10665405122E+04  0.10992647460E+04  0.79824359746E+02 0.  0.
        -24    1    1    2    0    0  0.22467195637E+03 -0.11842677593E+03 -0.64561578983E+03  0.69835096171E+03  0.79824359746E+02 0.  0.
<mgrwt>
<rscale>  0 0.26622231E+03</rscale>
<asrwt>0</asrwt>
<pdfrwt beam="1">  1       22 0.85460082E+00 0.26622231E+03</pdfrwt>
<pdfrwt beam="2">0</pdfrwt>
<totfact> 0.20013050E-03</totfact>
</mgrwt>
</event>
<event>
 4    1  0.1416288E+001  0.3186274E+03  0.7818608E-02  0.9961181E-01
         22   -1    0    0    0    0  0.00000000000E+00  0.00000000000E+00  0.46749897810E+02  0.46749897810E+02  0.00000000000E+00 0.  1.
         22   -1    0    0    0    0 -0.00000000000E+00 -0.00000000000E+00 -0.31952440522E+04  0.31952440522E+04  0.00000000000E+00 0.  1.
         24    1    1    2    0    0 -0.29928807880E+03  0.74686777467E+02 -0.65676268576E+03  0.72997302872E+03  0.79824359746E+02 0.  0.
        -24    1    1    2    0    0  0.29928807880E+03 -0.74686777467E+02 -0.24917314686E+04  0.25120209213E+04  0.79824359746E+02 0.  0.
<mgrwt>
<rscale>  0 0.31862736E+03</rscale>
<asrwt>0</asrwt>
<pdfrwt beam="1">  1       22 0.93499869E+00 0.31862736E+03</pdfrwt>
<pdfrwt beam="2">0</pdfrwt>
<totfact> 0.22544094E-04</totfact>
</mgrwt>
</event>
<event>
 4    1  0.8237115E+000  0.2312935E+03  0.7818608E-02  0.1038190E+00
         22   -1    0    0    0    0  0.00000000000E+00  0.00000000000E+00  0.41244847206E+02  0.41244847206E+02  0.00000000000E+00 0.  1.
         22   -1    0    0    0    0 -0.00000000000E+00 -0.00000000000E+00 -0.38414719738E+04  0.38414719738E+04  0.00000000000E+00 0.  1.
         24    1    1    2    0    0  0.10914779532E+03 -0.18764729000E+03 -0.34800927304E+04  0.34877703605E+04  0.79824359746E+02 0.  0.
        -24    1    1    2    0    0 -0.10914779532E+03  0.18764729000E+03 -0.32013439620E+03  0.39494646056E+03  0.79824359746E+02 0.  0.
<mgrwt>
<rscale>  0 0.23129348E+03</rscale>
<asrwt>0</asrwt>
<pdfrwt beam="1">  1       22 0.82493425E+00 0.23129348E+03</pdfrwt>
<pdfrwt beam="2">0</pdfrwt>
<totfact> 0.93941382E-05</totfact>
</mgrwt>
</event>
<event>
 4    1  0.8237115E+000  0.2260426E+03  0.7818608E-02  0.1041346E+00
         22   -1    0    0    0    0  0.00000000000E+00  0.00000000000E+00  0.40172028985E+02  0.40172028985E+02  0.00000000000E+00 0. -1.
         22   -1    0    0    0    0 -0.00000000000E+00 -0.00000000000E+00 -0.21392299746E+04  0.21392299746E+04  0.00000000000E+00 0. -1.
         24    1    1    2    0    0  0.17369192057E+03 -0.12064185383E+03 -0.17433826479E+04  0.17579756328E+04  0.79824359746E+02 0.  0.
        -24    1    1    2    0    0 -0.17369192057E+03  0.12064185383E+03 -0.35567529772E+03  0.42142637078E+03  0.79824359746E+02 0.  0.
<mgrwt>
<rscale>  0 0.22604263E+03</rscale>
<asrwt>0</asrwt>
<pdfrwt beam="1">  1       22 0.80343392E+00 0.22604263E+03</pdfrwt>
<pdfrwt beam="2">0</pdfrwt>
<totfact> 0.12394620E-03</totfact>
</mgrwt>
</event>
<event>
 4    1  0.8237115E+000  0.2392931E+03  0.7818608E-02  0.1033553E+00
         22   -1    0    0    0    0  0.00000000000E+00  0.00000000000E+00  0.48327438640E+02  0.48327438640E+02  0.00000000000E+00 0.  1.
         22   -1    0    0    0    0 -0.00000000000E+00 -0.00000000000E+00 -0.16265433056E+04  0.16265433056E+04  0.00000000000E+00 0.  1.
         24    1    1    2    0    0 -0.14532940979E+03 -0.17253579826E+03 -0.35271791640E+03  0.42622892440E+03  0.79824359746E+02 0.  0.
        -24    1    1    2    0    0  0.14532940979E+03  0.17253579826E+03 -0.12254979506E+04  0.12486418199E+04  0.79824359746E+02 0.  0.
<mgrwt>
<rscale>  0 0.23929306E+03</rscale>
<asrwt>0</asrwt>
<pdfrwt beam="1">  1       22 0.96656113E+00 0.23929306E+03</pdfrwt>
<pdfrwt beam="2">0</pdfrwt>
<totfact> 0.19649592E-03</totfact>
</mgrwt>
</event>
